 Entering Link 1 = C:\G16W\l1.exe PID=     17824.
  
 Copyright (c) 1988-2017, Gaussian, Inc.  All Rights Reserved.
  
 This is part of the Gaussian(R) 16 program.  It is based on
 the Gaussian(R) 09 system (copyright 2009, Gaussian, Inc.),
 the Gaussian(R) 03 system (copyright 2003, Gaussian, Inc.),
 the Gaussian(R) 98 system (copyright 1998, Gaussian, Inc.),
 the Gaussian(R) 94 system (copyright 1995, Gaussian, Inc.),
 the Gaussian 92(TM) system (copyright 1992, Gaussian, Inc.),
 the Gaussian 90(TM) system (copyright 1990, Gaussian, Inc.),
 the Gaussian 88(TM) system (copyright 1988, Gaussian, Inc.),
 the Gaussian 86(TM) system (copyright 1986, Carnegie Mellon
 University), and the Gaussian 82(TM) system (copyright 1983,
 Carnegie Mellon University). Gaussian is a federally registered
 trademark of Gaussian, Inc.
  
 This software contains proprietary and confidential information,
 including trade secrets, belonging to Gaussian, Inc.
  
 This software is provided under written license and may be
 used, copied, transmitted, or stored only in accord with that
 written license.
  
 The following legend is applicable only to US Government
 contracts under FAR:
  
                    RESTRICTED RIGHTS LEGEND
  
 Use, reproduction and disclosure by the US Government is
 subject to restrictions as set forth in subparagraphs (a)
 and (c) of the Commercial Computer Software - Restricted
 Rights clause in FAR 52.227-19.
  
 Gaussian, Inc.
 340 Quinnipiac St., Bldg. 40, Wallingford CT 06492
  
  
 ---------------------------------------------------------------
 Warning -- This program may not be used in any manner that
 competes with the business of Gaussian, Inc. or will provide
 assistance to any competitor of Gaussian, Inc.  The licensee
 of this program is prohibited from giving any competitor of
 Gaussian, Inc. access to this program.  By using this program,
 the user acknowledges that Gaussian, Inc. is engaged in the
 business of creating and licensing software in the field of
 computational chemistry and represents and warrants to the
 licensee that it is not a competitor of Gaussian, Inc. and that
 it will not use this program in any manner prohibited above.
 ---------------------------------------------------------------
  

 Cite this work as:
 Gaussian 16, Revision B.01,
 M. J. Frisch, G. W. Trucks, H. B. Schlegel, G. E. Scuseria, 
 M. A. Robb, J. R. Cheeseman, G. Scalmani, V. Barone, 
 G. A. Petersson, H. Nakatsuji, X. Li, M. Caricato, A. V. Marenich, 
 J. Bloino, B. G. Janesko, R. Gomperts, B. Mennucci, H. P. Hratchian, 
 J. V. Ortiz, A. F. Izmaylov, J. L. Sonnenberg, D. Williams-Young, 
 F. Ding, F. Lipparini, F. Egidi, J. Goings, B. Peng, A. Petrone, 
 T. Henderson, D. Ranasinghe, V. G. Zakrzewski, J. Gao, N. Rega, 
 G. Zheng, W. Liang, M. Hada, M. Ehara, K. Toyota, R. Fukuda, 
 J. Hasegawa, M. Ishida, T. Nakajima, Y. Honda, O. Kitao, H. Nakai, 
 T. Vreven, K. Throssell, J. A. Montgomery, Jr., J. E. Peralta, 
 F. Ogliaro, M. J. Bearpark, J. J. Heyd, E. N. Brothers, K. N. Kudin, 
 V. N. Staroverov, T. A. Keith, R. Kobayashi, J. Normand, 
 K. Raghavachari, A. P. Rendell, J. C. Burant, S. S. Iyengar, 
 J. Tomasi, M. Cossi, J. M. Millam, M. Klene, C. Adamo, R. Cammi, 
 J. W. Ochterski, R. L. Martin, K. Morokuma, O. Farkas, 
 J. B. Foresman, and D. J. Fox, Gaussian, Inc., Wallingford CT, 2016.
 
 ******************************************
 Gaussian 16:  EM64W-G16RevB.01 16-Dec-2017
                14-Sep-2020 
 ******************************************
 %nprocshared = 6
 Will use up to    6 processors via shared memory.
 %chk=C:\Users\no83wec\Documents\BA_projektmodul\2020_09_14\glycogenFragment\glyk
 ogenFragment.chk
 -------------------------------------------------------------------
 # opt freq(raman, printderivatives) b3lyp/6-31+G* geom=connectivity
 -------------------------------------------------------------------
 1/18=20,19=15,26=3,38=1,57=2/1,3;
 2/9=110,12=2,17=6,18=5,40=1/2;
 3/5=1,6=6,7=11,11=2,25=1,30=1,71=1,74=-5/1,2,3;
 4//1;
 5/5=2,38=5/2;
 6/7=2,8=2,9=2,10=2,28=1/1;
 7//1,2,3,16;
 1/18=20,19=15,26=3/3(2);
 2/9=110/2;
 99//99;
 2/9=110/2;
 3/5=1,6=6,7=11,11=2,25=1,30=1,71=1,74=-5/1,2,3;
 4/5=5,16=3,69=1/1;
 5/5=2,38=5/2;
 7//1,2,3,16;
 1/18=20,19=15,26=3/3(-5);
 2/9=110/2;
 6/7=2,8=2,9=2,10=2,19=2,28=1/1;
 99/9=1/99;
 ---------------------------------------------------------------
 Geometrieoptimierung und Ramantensor Diglucose 1,4-glycosidisch
 ---------------------------------------------------------------
 Symbolic Z-matrix:
 Charge =  0 Multiplicity = 1
 C                     2.37322   0.73726  -0.50054 
 C                     3.40594  -0.2451    0.04629 
 C                     2.63072  -1.35562   0.73947 
 C                     1.74745  -2.0618   -0.27705 
 C                     0.78607  -1.03598  -0.88236 
 H                     3.98043  -0.67965  -0.78602 
 H                     1.71885   1.07065   0.30668 
 H                     2.3844   -2.42538  -1.09621 
 H                     0.14243  -1.46277  -1.64877 
 H                     1.99243  -0.92751   1.51696 
 O                    -0.00642  -0.49209   0.20167 
 C                    -1.21755   0.19872  -0.28227 
 C                    -2.29124  -0.86272  -0.50102 
 C                    -1.60116   1.22031   0.80829 
 H                    -1.00935   0.7016   -1.23344 
 C                    -3.68311  -0.25746  -0.6033 
 H                    -2.27951  -1.54689   0.35098 
 H                    -1.39399   0.76136   1.77785 
 C                    -3.97003   0.52587   0.67017 
 H                    -3.70439   0.45068  -1.44094 
 H                    -4.95302   1.01474   0.65086 
 O                    -3.82173  -0.37675   1.77416 
 H                    -3.93118   0.14899   2.61224 
 O                    -3.02845   1.62154   0.70852 
 O                     1.5684    0.01867  -1.51496 
 O                    -1.99847  -1.5438   -1.76148 
 H                    -2.77791  -2.15254  -1.89376 
 O                     4.26523   0.45142   0.98871 
 H                     4.74155  -0.2829    1.46938 
 O                     3.6071   -2.30871   1.31152 
 H                     3.35858  -2.45375   2.26193 
 O                     0.99506  -3.13588   0.3427 
 H                     1.69363  -3.7213    0.74905 
 O                    -4.54415  -1.41287  -0.83431 
 H                    -5.44761  -1.09243  -1.09547 
 C                    -0.9229    2.59838   0.68488 
 H                    -1.14467   2.9718   -0.325 
 H                    -1.44302   3.25274   1.39567 
 C                     3.0032    1.94805  -1.15456 
 H                     3.85164   2.25391  -0.53294 
 H                     3.33223   1.69397  -2.16765 
 O                     0.49194   2.57733   0.97375 
 H                     1.00315   2.8725    0.14899 
 O                     1.9627    3.00418  -1.19991 
 H                     2.39189   3.86822  -1.4316 
 

 GradGradGradGradGradGradGradGradGradGradGradGradGradGradGradGradGradGrad
 Berny optimization.
 Initialization pass.
                           ----------------------------
                           !    Initial Parameters    !
                           ! (Angstroms and Degrees)  !
 --------------------------                            --------------------------
 ! Name  Definition              Value          Derivative Info.                !
 --------------------------------------------------------------------------------
 ! R1    R(1,2)                  1.5266         estimate D2E/DX2                !
 ! R2    R(1,7)                  1.0913         estimate D2E/DX2                !
 ! R3    R(1,25)                 1.4809         estimate D2E/DX2                !
 ! R4    R(1,39)                 1.5135         estimate D2E/DX2                !
 ! R5    R(2,3)                  1.5214         estimate D2E/DX2                !
 ! R6    R(2,6)                  1.1007         estimate D2E/DX2                !
 ! R7    R(2,28)                 1.4532         estimate D2E/DX2                !
 ! R8    R(3,4)                  1.5206         estimate D2E/DX2                !
 ! R9    R(3,10)                 1.0932         estimate D2E/DX2                !
 ! R10   R(3,30)                 1.4795         estimate D2E/DX2                !
 ! R11   R(4,5)                  1.5307         estimate D2E/DX2                !
 ! R12   R(4,8)                  1.0995         estimate D2E/DX2                !
 ! R13   R(4,32)                 1.4505         estimate D2E/DX2                !
 ! R14   R(5,9)                  1.088          estimate D2E/DX2                !
 ! R15   R(5,11)                 1.4488         estimate D2E/DX2                !
 ! R16   R(5,25)                 1.4576         estimate D2E/DX2                !
 ! R17   R(11,12)                1.4759         estimate D2E/DX2                !
 ! R18   R(12,13)                1.5256         estimate D2E/DX2                !
 ! R19   R(12,14)                1.5428         estimate D2E/DX2                !
 ! R20   R(12,15)                1.0959         estimate D2E/DX2                !
 ! R21   R(13,16)                1.5212         estimate D2E/DX2                !
 ! R22   R(13,17)                1.0928         estimate D2E/DX2                !
 ! R23   R(13,26)                1.4623         estimate D2E/DX2                !
 ! R24   R(14,18)                1.0925         estimate D2E/DX2                !
 ! R25   R(14,24)                1.486          estimate D2E/DX2                !
 ! R26   R(14,36)                1.5409         estimate D2E/DX2                !
 ! R27   R(16,19)                1.5224         estimate D2E/DX2                !
 ! R28   R(16,20)                1.0971         estimate D2E/DX2                !
 ! R29   R(16,34)                1.4594         estimate D2E/DX2                !
 ! R30   R(19,21)                1.098          estimate D2E/DX2                !
 ! R31   R(19,22)                1.4337         estimate D2E/DX2                !
 ! R32   R(19,24)                1.4452         estimate D2E/DX2                !
 ! R33   R(22,23)                0.9954         estimate D2E/DX2                !
 ! R34   R(26,27)                0.9978         estimate D2E/DX2                !
 ! R35   R(28,29)                0.9986         estimate D2E/DX2                !
 ! R36   R(30,31)                0.993          estimate D2E/DX2                !
 ! R37   R(32,33)                0.9979         estimate D2E/DX2                !
 ! R38   R(34,35)                0.9935         estimate D2E/DX2                !
 ! R39   R(36,37)                1.0993         estimate D2E/DX2                !
 ! R40   R(36,38)                1.0972         estimate D2E/DX2                !
 ! R41   R(36,42)                1.4442         estimate D2E/DX2                !
 ! R42   R(39,40)                1.0954         estimate D2E/DX2                !
 ! R43   R(39,41)                1.0951         estimate D2E/DX2                !
 ! R44   R(39,44)                1.4833         estimate D2E/DX2                !
 ! R45   R(42,43)                1.0142         estimate D2E/DX2                !
 ! R46   R(44,45)                0.9922         estimate D2E/DX2                !
 ! A1    A(2,1,7)              109.71           estimate D2E/DX2                !
 ! A2    A(2,1,25)             107.5029         estimate D2E/DX2                !
 ! A3    A(2,1,39)             112.8301         estimate D2E/DX2                !
 ! A4    A(7,1,25)             109.2105         estimate D2E/DX2                !
 ! A5    A(7,1,39)             108.9554         estimate D2E/DX2                !
 ! A6    A(25,1,39)            108.5658         estimate D2E/DX2                !
 ! A7    A(1,2,3)              106.7507         estimate D2E/DX2                !
 ! A8    A(1,2,6)              109.6484         estimate D2E/DX2                !
 ! A9    A(1,2,28)             108.898          estimate D2E/DX2                !
 ! A10   A(3,2,6)              108.8015         estimate D2E/DX2                !
 ! A11   A(3,2,28)             110.8357         estimate D2E/DX2                !
 ! A12   A(6,2,28)             111.7759         estimate D2E/DX2                !
 ! A13   A(2,3,4)              109.2921         estimate D2E/DX2                !
 ! A14   A(2,3,10)             109.6138         estimate D2E/DX2                !
 ! A15   A(2,3,30)             108.066          estimate D2E/DX2                !
 ! A16   A(4,3,10)             108.551          estimate D2E/DX2                !
 ! A17   A(4,3,30)             110.0379         estimate D2E/DX2                !
 ! A18   A(10,3,30)            111.2596         estimate D2E/DX2                !
 ! A19   A(3,4,5)              108.5393         estimate D2E/DX2                !
 ! A20   A(3,4,8)              108.3681         estimate D2E/DX2                !
 ! A21   A(3,4,32)             111.0745         estimate D2E/DX2                !
 ! A22   A(5,4,8)              106.9079         estimate D2E/DX2                !
 ! A23   A(5,4,32)             109.8428         estimate D2E/DX2                !
 ! A24   A(8,4,32)             111.9606         estimate D2E/DX2                !
 ! A25   A(4,5,9)              112.7819         estimate D2E/DX2                !
 ! A26   A(4,5,11)             107.4131         estimate D2E/DX2                !
 ! A27   A(4,5,25)             108.6291         estimate D2E/DX2                !
 ! A28   A(9,5,11)             110.5317         estimate D2E/DX2                !
 ! A29   A(9,5,25)             107.1953         estimate D2E/DX2                !
 ! A30   A(11,5,25)            110.2852         estimate D2E/DX2                !
 ! A31   A(5,11,12)            112.2873         estimate D2E/DX2                !
 ! A32   A(11,12,13)           107.3915         estimate D2E/DX2                !
 ! A33   A(11,12,14)           106.3917         estimate D2E/DX2                !
 ! A34   A(11,12,15)           110.0889         estimate D2E/DX2                !
 ! A35   A(13,12,14)           112.7735         estimate D2E/DX2                !
 ! A36   A(13,12,15)           109.1795         estimate D2E/DX2                !
 ! A37   A(14,12,15)           110.9113         estimate D2E/DX2                !
 ! A38   A(12,13,16)           112.1333         estimate D2E/DX2                !
 ! A39   A(12,13,17)           108.4371         estimate D2E/DX2                !
 ! A40   A(12,13,26)           107.8634         estimate D2E/DX2                !
 ! A41   A(16,13,17)           108.1409         estimate D2E/DX2                !
 ! A42   A(16,13,26)           108.0921         estimate D2E/DX2                !
 ! A43   A(17,13,26)           112.2287         estimate D2E/DX2                !
 ! A44   A(12,14,18)           107.5783         estimate D2E/DX2                !
 ! A45   A(12,14,24)           111.726          estimate D2E/DX2                !
 ! A46   A(12,14,36)           115.2232         estimate D2E/DX2                !
 ! A47   A(18,14,24)           110.8025         estimate D2E/DX2                !
 ! A48   A(18,14,36)           111.3033         estimate D2E/DX2                !
 ! A49   A(24,14,36)           100.1329         estimate D2E/DX2                !
 ! A50   A(13,16,19)           108.7188         estimate D2E/DX2                !
 ! A51   A(13,16,20)           109.0209         estimate D2E/DX2                !
 ! A52   A(13,16,34)           103.6197         estimate D2E/DX2                !
 ! A53   A(19,16,20)           107.6321         estimate D2E/DX2                !
 ! A54   A(19,16,34)           115.3783         estimate D2E/DX2                !
 ! A55   A(20,16,34)           112.2553         estimate D2E/DX2                !
 ! A56   A(16,19,21)           112.526          estimate D2E/DX2                !
 ! A57   A(16,19,22)           107.4987         estimate D2E/DX2                !
 ! A58   A(16,19,24)           106.8287         estimate D2E/DX2                !
 ! A59   A(21,19,22)           112.7336         estimate D2E/DX2                !
 ! A60   A(21,19,24)           104.2525         estimate D2E/DX2                !
 ! A61   A(22,19,24)           112.9226         estimate D2E/DX2                !
 ! A62   A(19,22,23)           107.7241         estimate D2E/DX2                !
 ! A63   A(14,24,19)           115.0162         estimate D2E/DX2                !
 ! A64   A(1,25,5)             110.2124         estimate D2E/DX2                !
 ! A65   A(13,26,27)           104.006          estimate D2E/DX2                !
 ! A66   A(2,28,29)            103.9903         estimate D2E/DX2                !
 ! A67   A(3,30,31)            107.3971         estimate D2E/DX2                !
 ! A68   A(4,32,33)            104.1978         estimate D2E/DX2                !
 ! A69   A(16,34,35)           108.8315         estimate D2E/DX2                !
 ! A70   A(14,36,37)           106.7723         estimate D2E/DX2                !
 ! A71   A(14,36,38)           105.832          estimate D2E/DX2                !
 ! A72   A(14,36,42)           113.7144         estimate D2E/DX2                !
 ! A73   A(37,36,38)           107.2708         estimate D2E/DX2                !
 ! A74   A(37,36,42)           112.7269         estimate D2E/DX2                !
 ! A75   A(38,36,42)           110.0911         estimate D2E/DX2                !
 ! A76   A(1,39,40)            107.4917         estimate D2E/DX2                !
 ! A77   A(1,39,41)            109.83           estimate D2E/DX2                !
 ! A78   A(1,39,44)            106.9081         estimate D2E/DX2                !
 ! A79   A(40,39,41)           110.9207         estimate D2E/DX2                !
 ! A80   A(40,39,44)           111.216          estimate D2E/DX2                !
 ! A81   A(41,39,44)           110.3465         estimate D2E/DX2                !
 ! A82   A(36,42,43)           109.0802         estimate D2E/DX2                !
 ! A83   A(39,44,45)           108.8899         estimate D2E/DX2                !
 ! D1    D(7,1,2,3)             55.0239         estimate D2E/DX2                !
 ! D2    D(7,1,2,6)            172.7238         estimate D2E/DX2                !
 ! D3    D(7,1,2,28)           -64.6888         estimate D2E/DX2                !
 ! D4    D(25,1,2,3)           -63.6262         estimate D2E/DX2                !
 ! D5    D(25,1,2,6)            54.0737         estimate D2E/DX2                !
 ! D6    D(25,1,2,28)          176.6611         estimate D2E/DX2                !
 ! D7    D(39,1,2,3)           176.7051         estimate D2E/DX2                !
 ! D8    D(39,1,2,6)           -65.595          estimate D2E/DX2                !
 ! D9    D(39,1,2,28)           56.9923         estimate D2E/DX2                !
 ! D10   D(2,1,25,5)            66.1487         estimate D2E/DX2                !
 ! D11   D(7,1,25,5)           -52.8223         estimate D2E/DX2                !
 ! D12   D(39,1,25,5)         -171.5013         estimate D2E/DX2                !
 ! D13   D(2,1,39,40)          -40.923          estimate D2E/DX2                !
 ! D14   D(2,1,39,41)           79.8494         estimate D2E/DX2                !
 ! D15   D(2,1,39,44)         -160.4194         estimate D2E/DX2                !
 ! D16   D(7,1,39,40)           81.1836         estimate D2E/DX2                !
 ! D17   D(7,1,39,41)         -158.044          estimate D2E/DX2                !
 ! D18   D(7,1,39,44)          -38.3128         estimate D2E/DX2                !
 ! D19   D(25,1,39,40)        -159.9766         estimate D2E/DX2                !
 ! D20   D(25,1,39,41)         -39.2041         estimate D2E/DX2                !
 ! D21   D(25,1,39,44)          80.527          estimate D2E/DX2                !
 ! D22   D(1,2,3,4)             61.6786         estimate D2E/DX2                !
 ! D23   D(1,2,3,10)           -57.1753         estimate D2E/DX2                !
 ! D24   D(1,2,3,30)          -178.5835         estimate D2E/DX2                !
 ! D25   D(6,2,3,4)            -56.5773         estimate D2E/DX2                !
 ! D26   D(6,2,3,10)          -175.4312         estimate D2E/DX2                !
 ! D27   D(6,2,3,30)            63.1606         estimate D2E/DX2                !
 ! D28   D(28,2,3,4)          -179.8675         estimate D2E/DX2                !
 ! D29   D(28,2,3,10)           61.2785         estimate D2E/DX2                !
 ! D30   D(28,2,3,30)          -60.1297         estimate D2E/DX2                !
 ! D31   D(1,2,28,29)          165.8037         estimate D2E/DX2                !
 ! D32   D(3,2,28,29)           48.6595         estimate D2E/DX2                !
 ! D33   D(6,2,28,29)          -72.8993         estimate D2E/DX2                !
 ! D34   D(2,3,4,5)            -59.4857         estimate D2E/DX2                !
 ! D35   D(2,3,4,8)             56.2723         estimate D2E/DX2                !
 ! D36   D(2,3,4,32)           179.656          estimate D2E/DX2                !
 ! D37   D(10,3,4,5)            60.0265         estimate D2E/DX2                !
 ! D38   D(10,3,4,8)           175.7846         estimate D2E/DX2                !
 ! D39   D(10,3,4,32)          -60.8317         estimate D2E/DX2                !
 ! D40   D(30,3,4,5)          -178.0014         estimate D2E/DX2                !
 ! D41   D(30,3,4,8)           -62.2434         estimate D2E/DX2                !
 ! D42   D(30,3,4,32)           61.1404         estimate D2E/DX2                !
 ! D43   D(2,3,30,31)          129.535          estimate D2E/DX2                !
 ! D44   D(4,3,30,31)         -111.1982         estimate D2E/DX2                !
 ! D45   D(10,3,30,31)           9.1517         estimate D2E/DX2                !
 ! D46   D(3,4,5,9)            177.941          estimate D2E/DX2                !
 ! D47   D(3,4,5,11)           -60.0268         estimate D2E/DX2                !
 ! D48   D(3,4,5,25)            59.2586         estimate D2E/DX2                !
 ! D49   D(8,4,5,9)             61.2406         estimate D2E/DX2                !
 ! D50   D(8,4,5,11)          -176.7272         estimate D2E/DX2                !
 ! D51   D(8,4,5,25)           -57.4418         estimate D2E/DX2                !
 ! D52   D(32,4,5,9)           -60.4431         estimate D2E/DX2                !
 ! D53   D(32,4,5,11)           61.589          estimate D2E/DX2                !
 ! D54   D(32,4,5,25)         -179.1255         estimate D2E/DX2                !
 ! D55   D(3,4,32,33)          -56.856          estimate D2E/DX2                !
 ! D56   D(5,4,32,33)         -176.9432         estimate D2E/DX2                !
 ! D57   D(8,4,32,33)           64.4438         estimate D2E/DX2                !
 ! D58   D(4,5,11,12)         -163.2126         estimate D2E/DX2                !
 ! D59   D(9,5,11,12)          -39.79           estimate D2E/DX2                !
 ! D60   D(25,5,11,12)          78.5683         estimate D2E/DX2                !
 ! D61   D(4,5,25,1)           -63.4563         estimate D2E/DX2                !
 ! D62   D(9,5,25,1)           174.398          estimate D2E/DX2                !
 ! D63   D(11,5,25,1)           54.0139         estimate D2E/DX2                !
 ! D64   D(5,11,12,13)          83.7016         estimate D2E/DX2                !
 ! D65   D(5,11,12,14)        -155.304          estimate D2E/DX2                !
 ! D66   D(5,11,12,15)         -35.0571         estimate D2E/DX2                !
 ! D67   D(11,12,13,16)        163.2596         estimate D2E/DX2                !
 ! D68   D(11,12,13,17)         43.9253         estimate D2E/DX2                !
 ! D69   D(11,12,13,26)        -77.8382         estimate D2E/DX2                !
 ! D70   D(14,12,13,16)         46.3735         estimate D2E/DX2                !
 ! D71   D(14,12,13,17)        -72.9609         estimate D2E/DX2                !
 ! D72   D(14,12,13,26)        165.2757         estimate D2E/DX2                !
 ! D73   D(15,12,13,16)        -77.3976         estimate D2E/DX2                !
 ! D74   D(15,12,13,17)        163.2681         estimate D2E/DX2                !
 ! D75   D(15,12,13,26)         41.5046         estimate D2E/DX2                !
 ! D76   D(11,12,14,18)        -37.2024         estimate D2E/DX2                !
 ! D77   D(11,12,14,24)       -159.0235         estimate D2E/DX2                !
 ! D78   D(11,12,14,36)         87.5826         estimate D2E/DX2                !
 ! D79   D(13,12,14,18)         80.2749         estimate D2E/DX2                !
 ! D80   D(13,12,14,24)        -41.5461         estimate D2E/DX2                !
 ! D81   D(13,12,14,36)       -154.9401         estimate D2E/DX2                !
 ! D82   D(15,12,14,18)       -156.9164         estimate D2E/DX2                !
 ! D83   D(15,12,14,24)         81.2626         estimate D2E/DX2                !
 ! D84   D(15,12,14,36)        -32.1313         estimate D2E/DX2                !
 ! D85   D(12,13,16,19)        -57.8986         estimate D2E/DX2                !
 ! D86   D(12,13,16,20)         59.173          estimate D2E/DX2                !
 ! D87   D(12,13,16,34)        178.8905         estimate D2E/DX2                !
 ! D88   D(17,13,16,19)         61.6094         estimate D2E/DX2                !
 ! D89   D(17,13,16,20)        178.681          estimate D2E/DX2                !
 ! D90   D(17,13,16,34)        -61.6015         estimate D2E/DX2                !
 ! D91   D(26,13,16,19)       -176.666          estimate D2E/DX2                !
 ! D92   D(26,13,16,20)        -59.5943         estimate D2E/DX2                !
 ! D93   D(26,13,16,34)         60.1232         estimate D2E/DX2                !
 ! D94   D(12,13,26,27)       -174.3686         estimate D2E/DX2                !
 ! D95   D(16,13,26,27)        -52.9205         estimate D2E/DX2                !
 ! D96   D(17,13,26,27)         66.2467         estimate D2E/DX2                !
 ! D97   D(12,14,24,19)         52.254          estimate D2E/DX2                !
 ! D98   D(18,14,24,19)        -67.6904         estimate D2E/DX2                !
 ! D99   D(36,14,24,19)        174.7484         estimate D2E/DX2                !
 ! D100  D(12,14,36,37)         54.9642         estimate D2E/DX2                !
 ! D101  D(12,14,36,38)        169.0292         estimate D2E/DX2                !
 ! D102  D(12,14,36,42)        -70.0032         estimate D2E/DX2                !
 ! D103  D(18,14,36,37)        177.7849         estimate D2E/DX2                !
 ! D104  D(18,14,36,38)        -68.15           estimate D2E/DX2                !
 ! D105  D(18,14,36,42)         52.8176         estimate D2E/DX2                !
 ! D106  D(24,14,36,37)        -65.0261         estimate D2E/DX2                !
 ! D107  D(24,14,36,38)         49.0389         estimate D2E/DX2                !
 ! D108  D(24,14,36,42)        170.0066         estimate D2E/DX2                !
 ! D109  D(13,16,19,21)        178.3996         estimate D2E/DX2                !
 ! D110  D(13,16,19,22)        -56.8904         estimate D2E/DX2                !
 ! D111  D(13,16,19,24)         64.5773         estimate D2E/DX2                !
 ! D112  D(20,16,19,21)         60.4447         estimate D2E/DX2                !
 ! D113  D(20,16,19,22)       -174.8452         estimate D2E/DX2                !
 ! D114  D(20,16,19,24)        -53.3775         estimate D2E/DX2                !
 ! D115  D(34,16,19,21)        -65.7564         estimate D2E/DX2                !
 ! D116  D(34,16,19,22)         58.9536         estimate D2E/DX2                !
 ! D117  D(34,16,19,24)       -179.5787         estimate D2E/DX2                !
 ! D118  D(13,16,34,35)       -168.6925         estimate D2E/DX2                !
 ! D119  D(19,16,34,35)         72.595          estimate D2E/DX2                !
 ! D120  D(20,16,34,35)        -51.2096         estimate D2E/DX2                !
 ! D121  D(16,19,22,23)        175.2029         estimate D2E/DX2                !
 ! D122  D(21,19,22,23)        -60.2123         estimate D2E/DX2                !
 ! D123  D(24,19,22,23)         57.6278         estimate D2E/DX2                !
 ! D124  D(16,19,24,14)        -63.5591         estimate D2E/DX2                !
 ! D125  D(21,19,24,14)        177.1145         estimate D2E/DX2                !
 ! D126  D(22,19,24,14)         54.4089         estimate D2E/DX2                !
 ! D127  D(14,36,42,43)        118.7205         estimate D2E/DX2                !
 ! D128  D(37,36,42,43)         -2.9953         estimate D2E/DX2                !
 ! D129  D(38,36,42,43)       -122.7273         estimate D2E/DX2                !
 ! D130  D(1,39,44,45)         167.4094         estimate D2E/DX2                !
 ! D131  D(40,39,44,45)         50.3451         estimate D2E/DX2                !
 ! D132  D(41,39,44,45)        -73.1924         estimate D2E/DX2                !
 --------------------------------------------------------------------------------
 Trust Radius=3.00D-01 FncErr=1.00D-07 GrdErr=1.00D-06 EigMax=2.50D+02 EigMin=1.00D-04
 Number of steps in this run=    270 maximum allowed number of steps=    270.
 GradGradGradGradGradGradGradGradGradGradGradGradGradGradGradGradGradGrad

                          Input orientation:                          
 ---------------------------------------------------------------------
 Center     Atomic      Atomic             Coordinates (Angstroms)
 Number     Number       Type             X           Y           Z
 ---------------------------------------------------------------------
      1          6           0        2.373217    0.737265   -0.500541
      2          6           0        3.405938   -0.245100    0.046294
      3          6           0        2.630720   -1.355616    0.739473
      4          6           0        1.747452   -2.061803   -0.277049
      5          6           0        0.786073   -1.035983   -0.882361
      6          1           0        3.980432   -0.679646   -0.786022
      7          1           0        1.718845    1.070655    0.306677
      8          1           0        2.384405   -2.425381   -1.096211
      9          1           0        0.142426   -1.462775   -1.648771
     10          1           0        1.992434   -0.927506    1.516956
     11          8           0       -0.006417   -0.492087    0.201671
     12          6           0       -1.217551    0.198722   -0.282266
     13          6           0       -2.291241   -0.862722   -0.501016
     14          6           0       -1.601160    1.220311    0.808295
     15          1           0       -1.009353    0.701601   -1.233442
     16          6           0       -3.683107   -0.257458   -0.603299
     17          1           0       -2.279512   -1.546887    0.350983
     18          1           0       -1.393995    0.761362    1.777854
     19          6           0       -3.970026    0.525874    0.670170
     20          1           0       -3.704389    0.450680   -1.440941
     21          1           0       -4.953019    1.014744    0.650861
     22          8           0       -3.821729   -0.376754    1.774160
     23          1           0       -3.931177    0.148992    2.612244
     24          8           0       -3.028445    1.621542    0.708525
     25          8           0        1.568400    0.018672   -1.514956
     26          8           0       -1.998469   -1.543799   -1.761482
     27          1           0       -2.777908   -2.152536   -1.893760
     28          8           0        4.265235    0.451424    0.988707
     29          1           0        4.741550   -0.282904    1.469383
     30          8           0        3.607099   -2.308706    1.311521
     31          1           0        3.358579   -2.453752    2.261926
     32          8           0        0.995056   -3.135884    0.342703
     33          1           0        1.693629   -3.721299    0.749047
     34          8           0       -4.544149   -1.412865   -0.834311
     35          1           0       -5.447613   -1.092431   -1.095472
     36          6           0       -0.922902    2.598377    0.684884
     37          1           0       -1.144673    2.971798   -0.324996
     38          1           0       -1.443023    3.252739    1.395671
     39          6           0        3.003199    1.948053   -1.154563
     40          1           0        3.851642    2.253915   -0.532941
     41          1           0        3.332225    1.693974   -2.167649
     42          8           0        0.491943    2.577330    0.973755
     43          1           0        1.003153    2.872500    0.148987
     44          8           0        1.962699    3.004177   -1.199908
     45          1           0        2.391894    3.868217   -1.431596
 ---------------------------------------------------------------------
                    Distance matrix (angstroms):
                    1          2          3          4          5
     1  C    0.000000
     2  C    1.526624   0.000000
     3  C    2.446240   1.521416   0.000000
     4  C    2.876858   2.481036   1.520585   0.000000
     5  C    2.410232   2.889912   2.476940   1.530673   0.000000
     6  H    2.161544   1.100737   2.146111   2.674998   3.215616
     7  H    1.091307   2.155294   2.627854   3.186510   2.592642
     8  H    3.218272   2.665047   2.138879   1.099510   2.128573
     9  H    3.336920   3.873821   3.450623   2.194667   1.088033
    10  H    2.643246   2.150935   1.093237   2.136610   2.687713
    11  O    2.768946   3.424809   2.826553   2.401923   1.448789
    12  C    3.637484   4.656349   4.274238   3.728437   2.428811
    13  C    4.931240   5.756636   5.099751   4.218886   3.105690
    14  C    4.212132   5.272486   4.954689   4.812842   3.694328
    15  H    3.461242   4.693481   4.623274   4.018838   2.523095
    16  C    6.138330   7.118756   6.547778   5.731760   4.545058
    17  H    5.252649   5.840533   4.929288   4.108041   3.343647
    18  H    4.402675   5.201022   4.664564   4.696975   3.880708
    19  C    6.453834   7.442343   6.864011   6.346877   5.241205
    20  H    6.156604   7.297447   6.939057   6.114718   4.763027
    21  H    7.421351   8.474956   7.946040   7.431182   6.284380
    22  O    6.692732   7.432499   6.607787   6.169492   5.359434
    23  H    7.055556   7.782845   6.987819   6.744069   5.989064
    24  O    5.605510   6.732325   6.394574   6.111267   4.913645
    25  O    1.480926   2.425618   2.845987   2.427519   1.457569
    26  O    5.089682   5.844852   5.264939   4.062486   2.963850
    27  H    6.068451   6.755892   6.068134   4.806336   3.869313
    28  O    2.424726   1.453162   2.449317   3.775935   4.221118
    29  H    3.245049   1.952043   2.477718   3.896041   4.663006
    30  O    3.752861   2.428937   1.479505   2.458212   3.793564
    31  H    4.334137   3.128804   2.013342   3.032450   4.302836
    32  O    4.196625   3.775824   2.449933   1.450463   2.440090
    33  H    4.679968   3.938252   2.544541   1.951845   3.270485
    34  O    7.251511   8.083504   7.345666   6.349480   5.343746
    35  H    8.054012   8.966994   8.288290   7.306056   6.237583
    36  C    3.966531   5.218430   5.316509   5.456499   4.311082
    37  H    4.171271   5.585190   5.840650   5.805499   4.483385
    38  H    4.948425   6.129284   6.185702   6.420396   5.343354
    39  C    1.513483   2.532622   3.826270   4.292537   3.727493
    40  H    2.118259   2.603697   4.017263   4.808172   4.510347
    41  H    2.148078   2.943973   4.271237   4.493521   3.948103
    42  O    3.016385   4.161450   4.483004   4.966122   4.072801
    43  H    2.618815   3.937430   4.568874   5.008277   4.048091
    44  O    2.407599   3.767461   4.818221   5.153849   4.219973
    45  H    3.266508   4.486850   5.662068   6.075642   5.189556
                    6          7          8          9         10
     6  H    0.000000
     7  H    3.061424   0.000000
     8  H    2.385605   3.825353   0.000000
     9  H    4.010974   3.567511   2.501680   0.000000
    10  H    3.052422   2.352079   3.037419   3.705519   0.000000
    11  O    4.111652   2.330175   3.337387   2.094880   2.432071
    12  C    5.295690   3.119221   4.530178   2.545083   3.848324
    13  C    6.280814   4.524501   4.965665   2.756835   4.735640
    14  C    6.107851   3.361019   5.727385   4.034379   4.246085
    15  H    5.196727   3.154557   4.616756   2.486687   4.385135
    16  C    7.677334   5.636757   6.462008   4.144937   6.095590
    17  H    6.421198   4.779157   4.961677   3.141954   4.471314
    18  H    6.126535   3.456848   5.717682   4.364531   3.793184
    19  C    8.172120   5.726444   7.225565   5.122936   6.195182
    20  H    7.795064   5.731492   6.742698   4.301452   6.565237
    21  H    9.205549   6.680970   8.290024   6.114733   7.263730
    22  O    8.217055   5.911553   7.138067   5.348871   5.845851
    23  H    8.650342   6.171536   7.763157   6.111324   6.119450
    24  O    7.526851   4.796011   6.995256   5.012412   5.688623
    25  O    2.614745   2.108944   2.610480   2.060581   3.204302
    26  O    6.119276   4.993102   4.519884   2.145391   5.201469
    27  H    7.005116   5.954130   5.230679   3.010672   5.990814
    28  O    2.123699   2.707898   4.020002   5.255283   2.710373
    29  H    2.413205   3.510093   4.090063   5.680398   2.824078
    30  O    2.681958   3.999411   2.702918   4.634963   2.134727
    31  H    3.581082   4.351226   3.496699   5.159382   2.179623
    32  O    4.027356   4.268505   2.122634   2.737196   2.692687
    33  H    4.103360   4.812395   2.358294   3.640974   2.912773
    34  O    8.556192   6.833361   7.007042   4.757081   6.963544
    35  H    9.442149   7.615975   7.944637   5.629550   7.887096
    36  C    6.078789   3.075029   6.272856   4.803522   4.650094
    37  H    6.309697   3.494723   6.494513   4.803586   5.332804
    38  H    7.045374   3.993095   7.286956   5.832525   5.412164
    39  C    2.827650   2.134153   4.417379   4.479063   4.053085
    40  H    2.947272   2.579513   4.936180   5.368160   4.216655
    41  H    2.821902   3.018908   4.360668   4.517645   4.716303
    42  O    5.086675   2.054350   5.735267   4.829312   3.851028
    43  H    4.728231   1.945181   5.614795   4.771519   4.158132
    44  O    4.220557   2.463284   5.446898   4.844433   4.779160
    45  H    4.860378   3.361687   6.302533   5.790228   5.643801
                   11         12         13         14         15
    11  O    0.000000
    12  C    1.475893   0.000000
    13  C    2.419000   1.525557   0.000000
    14  C    2.417334   1.542764   2.555295   0.000000
    15  H    2.119038   1.095888   2.150998   2.188147   0.000000
    16  C    3.771085   2.527870   1.521215   2.917346   2.909611
    17  H    2.510350   2.139139   1.092759   2.885598   3.029753
    18  H    2.445580   2.142846   2.938699   1.092519   3.036351
    19  C    4.118972   2.930917   2.473498   2.472417   3.524231
    20  H    4.154754   2.755063   2.146036   3.174108   2.714633
    21  H    5.190490   3.935776   3.454961   3.361845   4.381913
    22  O    4.128272   3.367759   2.784778   2.900766   4.256522
    23  H    4.650332   3.967924   3.661331   3.135433   4.861248
    24  O    3.722497   2.507074   2.859725   1.485963   2.948603
    25  O    2.384896   3.051797   4.086779   4.109445   2.681501
    26  O    2.988033   2.415428   1.462312   3.794985   2.509780
    27  H    3.850855   3.249622   1.959643   4.479055   3.421973
    28  O    4.444845   5.633841   6.850812   5.919317   5.729032
    29  H    4.918744   6.229857   7.326583   6.551844   6.430194
    30  O    4.193968   5.666092   6.337711   6.311351   6.070454
    31  H    4.406356   5.869369   6.487349   6.341197   6.422825
    32  O    2.830635   4.050409   4.083978   5.092499   4.607404
    33  H    3.690201   4.990505   5.060959   5.939583   5.549632
    34  O    4.744692   3.737408   2.342933   4.277027   4.138243
    35  H    5.625799   4.496866   3.220066   4.875275   4.789127
    36  C    3.259511   2.603947   3.906139   1.540886   2.699113
    37  H    3.683953   2.774362   4.006138   2.135518   2.448955
    38  H    4.184877   3.491895   4.610197   2.121505   3.688986
    39  C    4.105050   4.651429   6.029815   5.057918   4.202432
    40  H    4.792161   5.475708   6.888357   5.709667   5.150694
    41  H    4.641020   5.146932   6.398260   5.780907   4.550478
    42  O    3.204029   3.187120   4.664228   2.499991   3.262510
    43  H    3.513183   3.502370   5.022691   3.153864   3.267123
    44  O    4.250377   4.338967   5.791145   4.462750   3.759797
    45  H    5.237529   5.273921   6.721571   5.288950   4.651366
                   16         17         18         19         20
    16  C    0.000000
    17  H    2.131516   0.000000
    18  H    3.456576   2.854490   0.000000
    19  C    1.522385   2.693707   2.813957   0.000000
    20  H    1.097067   3.038345   3.974303   2.129086   0.000000
    21  H    2.191824   3.714770   3.741787   1.098017   2.500576
    22  O    2.384483   2.402723   2.681271   1.433710   3.321941
    23  H    3.250609   3.273729   2.740164   1.978687   4.070719
    24  O    2.383297   3.275313   2.134199   1.445176   2.539295
    25  O    5.337199   4.554023   4.491099   5.975465   5.290974
    26  O    2.415381   2.131081   4.266855   3.752800   2.644022
    27  H    2.464953   2.377831   4.887409   3.894709   2.800026
    28  O    8.137145   6.872674   5.722385   8.241755   8.331751
    29  H    8.675915   7.221065   6.231417   8.785466   8.963370
    30  O    7.811611   6.012919   5.886741   8.115356   8.285415
    31  H    7.913189   6.021808   5.758319   8.069715   8.487194
    32  O    5.573640   3.639749   4.791215   6.178005   6.174917
    33  H    6.537302   4.546688   5.539505   7.079667   7.165197
    34  O    1.459358   2.559583   4.634020   2.520276   2.132135
    35  H    2.013180   3.512212   5.303242   2.814191   2.353587
    36  C    4.175398   4.374368   2.188867   3.685166   4.107116
    37  H    4.116940   4.707793   3.061073   3.867236   3.762115
    38  H    4.619020   4.982720   2.520998   3.787861   4.583850
    39  C    7.062213   6.510629   5.416882   7.346979   6.878652
    40  H    7.942568   7.267631   5.923191   8.100129   7.821107
    41  H    7.447830   6.952573   6.226870   7.920893   7.182466
    42  O    5.287170   5.007791   2.738810   4.920345   5.287967
    43  H    5.685385   5.508872   3.585586   5.523657   5.527570
    44  O    6.547467   6.412004   5.016441   6.695998   6.220476
    45  H    7.390055   7.370411   5.855431   7.487502   6.988870
                   21         22         23         24         25
    21  H    0.000000
    22  O    2.116102   0.000000
    23  H    2.375017   0.995375   0.000000
    24  O    2.018790   2.399597   2.570501   0.000000
    25  O    6.943473   6.326779   6.877217   5.352013   0.000000
    26  O    4.592919   4.145725   5.072512   4.145017   3.901877
    27  H    4.608455   4.206733   5.189521   4.591113   4.873195
    28  O    9.241627   8.167117   8.361131   7.392256   3.705202
    29  H    9.815219   8.569215   8.758360   8.036084   4.366475
    30  O    9.206379   7.689861   8.034785   7.735690   4.190698
    31  H    9.149243   7.490571   7.748390   7.734025   4.856177
    32  O    7.259633   5.732651   6.341057   6.241433   3.705515
    33  H    8.161965   6.531157   7.077365   7.130608   4.373646
    34  O    2.875100   2.898196   3.833259   3.726303   6.314731
    35  H    2.781095   3.374979   4.193789   4.058624   7.115824
    36  C    4.330230   4.294314   4.331734   2.321224   4.207227
    37  H    4.391567   4.773457   4.935607   2.537707   4.183027
    38  H    4.228881   4.355998   4.159833   2.376245   5.291465
    39  C    8.211700   7.782145   8.093888   6.321268   2.431263
    40  H    8.969893   8.433491   8.654199   7.019739   3.342732
    41  H    8.777848   8.426437   8.831272   6.981100   2.518675
    42  O    5.673935   5.289143   5.305230   3.657460   3.728159
    43  H    6.259322   6.039729   6.150833   4.258141   3.351499
    44  O    7.430366   7.330442   7.577754   5.519539   3.027865
    45  H    8.150256   8.179594   8.376545   6.245617   3.937523
                   26         27         28         29         30
    26  O    0.000000
    27  H    0.997789   0.000000
    28  O    7.125899   8.043325   0.000000
    29  H    7.579987   8.446804   0.998581   0.000000
    30  O    6.438231   7.146085   2.855813   2.327181   0.000000
    31  H    6.761197   7.417340   3.298964   2.693198   0.993012
    32  O    3.990429   4.494886   4.896955   4.842016   2.906132
    33  H    4.967479   5.425872   4.907363   4.650943   2.444006
    34  O    2.712430   2.188413   9.187176   9.633692   8.476436
    35  H    3.541736   2.981343  10.053194  10.538162   9.447791
    36  C    4.929419   5.715035   5.623030   6.403376   6.707685
    37  H    4.814880   5.602434   6.111071   6.961357   7.289804
    38  H    5.769134   6.466782   6.371592   7.124264   7.512688
    39  C    6.130094   7.126179   2.902798   3.857995   4.956435
    40  H    7.082072   8.075864   2.394879   3.352117   4.927408
    41  H    6.250156   7.225260   3.518098   4.372898   5.310519
    42  O    5.537813   6.425434   4.330985   5.146430   5.804449
    43  H    5.671272   6.612127   4.148242   5.067112   5.914128
    44  O    6.057252   7.038926   4.075323   5.064783   6.102299
    45  H    6.976677   7.949208   4.587128   5.582864   6.867007
                   31         32         33         34         35
    31  H    0.000000
    32  O    3.120090   0.000000
    33  H    2.582158   0.997913   0.000000
    34  O    8.551212   5.919202   6.837087   0.000000
    35  H    9.522307   6.910284   7.830104   0.993544   0.000000
    36  C    6.807506   6.056186   6.840223   5.613506   6.104486
    37  H    7.510528   6.506000   7.348950   5.571455   5.968826
    38  H    7.507983   6.918632   7.674237   6.029732   6.412725
    39  C    5.583420   5.667526   6.122112   8.268058   8.981328
    40  H    5.496956   6.162529   6.481026   9.166538   9.899021
    41  H    6.068398   5.923829   6.365319   8.571319   9.273574
    42  O    5.932013   5.769936   6.416173   6.674802   7.281976
    43  H    6.195280   6.011511   6.656952   7.078403   7.673444
    44  O    6.612244   6.404399   7.007343   7.872928   8.467929
    45  H    7.385383   7.359125   7.927391   8.738150   9.283258
                   36         37         38         39         40
    36  C    0.000000
    37  H    1.099311   0.000000
    38  H    1.097239   1.768795   0.000000
    39  C    4.384148   4.352134   5.289119   0.000000
    40  H    4.939435   5.051906   5.722820   1.095364   0.000000
    41  H    5.202018   5.007077   6.158733   1.095060   1.804327
    42  O    1.444186   2.126234   2.092435   3.351437   3.696256
    43  H    2.017924   2.201744   2.771746   2.560084   2.993587
    44  O    3.470418   3.228355   4.289260   1.483272   2.139123
    45  H    4.132777   3.812536   4.804043   2.034078   2.354659
                   41         42         43         44         45
    41  H    0.000000
    42  O    4.326192   0.000000
    43  H    3.490029   1.014250   0.000000
    44  O    2.128088   2.658971   1.660597   0.000000
    45  H    2.480591   3.325946   2.327723   0.992196   0.000000
 Stoichiometry    C12H22O11
 Framework group  C1[X(C12H22O11)]
 Deg. of freedom   129
 Full point group                 C1      NOp   1
 Largest Abelian subgroup         C1      NOp   1
 Largest concise Abelian subgroup C1      NOp   1
                         Standard orientation:                         
 ---------------------------------------------------------------------
 Center     Atomic      Atomic             Coordinates (Angstroms)
 Number     Number       Type             X           Y           Z
 ---------------------------------------------------------------------
      1          6           0       -2.373217    0.737265    0.500541
      2          6           0       -3.405938   -0.245100   -0.046294
      3          6           0       -2.630720   -1.355616   -0.739473
      4          6           0       -1.747452   -2.061803    0.277049
      5          6           0       -0.786073   -1.035983    0.882361
      6          1           0       -3.980432   -0.679646    0.786022
      7          1           0       -1.718845    1.070655   -0.306677
      8          1           0       -2.384405   -2.425381    1.096211
      9          1           0       -0.142426   -1.462775    1.648771
     10          1           0       -1.992434   -0.927506   -1.516956
     11          8           0        0.006417   -0.492087   -0.201671
     12          6           0        1.217551    0.198722    0.282266
     13          6           0        2.291241   -0.862722    0.501016
     14          6           0        1.601160    1.220311   -0.808295
     15          1           0        1.009353    0.701601    1.233442
     16          6           0        3.683107   -0.257458    0.603299
     17          1           0        2.279512   -1.546887   -0.350983
     18          1           0        1.393995    0.761362   -1.777854
     19          6           0        3.970026    0.525874   -0.670170
     20          1           0        3.704389    0.450680    1.440941
     21          1           0        4.953019    1.014744   -0.650861
     22          8           0        3.821729   -0.376754   -1.774160
     23          1           0        3.931177    0.148992   -2.612244
     24          8           0        3.028445    1.621542   -0.708525
     25          8           0       -1.568400    0.018672    1.514956
     26          8           0        1.998469   -1.543799    1.761482
     27          1           0        2.777908   -2.152536    1.893760
     28          8           0       -4.265235    0.451424   -0.988707
     29          1           0       -4.741550   -0.282904   -1.469383
     30          8           0       -3.607099   -2.308706   -1.311520
     31          1           0       -3.358578   -2.453752   -2.261926
     32          8           0       -0.995056   -3.135884   -0.342703
     33          1           0       -1.693629   -3.721299   -0.749047
     34          8           0        4.544149   -1.412865    0.834311
     35          1           0        5.447613   -1.092431    1.095472
     36          6           0        0.922902    2.598377   -0.684884
     37          1           0        1.144673    2.971798    0.324996
     38          1           0        1.443023    3.252739   -1.395671
     39          6           0       -3.003199    1.948052    1.154563
     40          1           0       -3.851642    2.253915    0.532941
     41          1           0       -3.332225    1.693974    2.167649
     42          8           0       -0.491943    2.577330   -0.973755
     43          1           0       -1.003153    2.872500   -0.148987
     44          8           0       -1.962699    3.004177    1.199908
     45          1           0       -2.391894    3.868217    1.431596
 ---------------------------------------------------------------------
 Rotational constants (GHZ):           0.3875841           0.1768364           0.1456383
 Standard basis: 6-31+G(d) (6D, 7F)
 There are   481 symmetry adapted cartesian basis functions of A   symmetry.
 There are   481 symmetry adapted basis functions of A   symmetry.
   481 basis functions,   824 primitive gaussians,   481 cartesian basis functions
    91 alpha electrons       91 beta electrons
       nuclear repulsion energy      2361.5181537387 Hartrees.
 NAtoms=   45 NActive=   45 NUniq=   45 SFac= 1.00D+00 NAtFMM=   60 NAOKFM=F Big=F
 Integral buffers will be    131072 words long.
 Raffenetti 2 integral format.
 Two-electron integral symmetry is turned on.
 One-electron integrals computed using PRISM.
 NBasis=   481 RedAO= T EigKep=  5.15D-06  NBF=   481
 NBsUse=   481 1.00D-06 EigRej= -1.00D+00 NBFU=   481
 ExpMin= 4.38D-02 ExpMax= 5.48D+03 ExpMxC= 8.25D+02 IAcc=3 IRadAn=         5 AccDes= 0.00D+00
 Harris functional with IExCor=  402 and IRadAn=       5 diagonalized for initial guess.
 HarFok:  IExCor=  402 AccDes= 0.00D+00 IRadAn=         5 IDoV= 1 UseB2=F ITyADJ=14
 ICtDFT=  3500011 ScaDFX=  1.000000  1.000000  1.000000  1.000000
 FoFCou: FMM=F IPFlag=           0 FMFlag=      100000 FMFlg1=           0
         NFxFlg=           0 DoJE=T BraDBF=F KetDBF=T FulRan=T
         wScrn=  0.000000 ICntrl=       500 IOpCl=  0 I1Cent=   200000004 NGrid=           0
         NMat0=    1 NMatS0=      1 NMatT0=    0 NMatD0=    1 NMtDS0=    0 NMtDT0=    0
 Petite list used in FoFCou.
 Requested convergence on RMS density matrix=1.00D-08 within 128 cycles.
 Requested convergence on MAX density matrix=1.00D-06.
 Requested convergence on             energy=1.00D-06.
 No special actions if energy rises.
 SCF Done:  E(RB3LYP) =  -1297.92308279     A.U. after   14 cycles
            NFock= 14  Conv=0.45D-08     -V/T= 2.0096

 **********************************************************************

            Population analysis using the SCF Density.

 **********************************************************************

 Orbital symmetries:
       Occupied  (A) (A) (A) (A) (A) (A) (A) (A) (A) (A) (A) (A)
                 (A) (A) (A) (A) (A) (A) (A) (A) (A) (A) (A) (A)
                 (A) (A) (A) (A) (A) (A) (A) (A) (A) (A) (A) (A)
                 (A) (A) (A) (A) (A) (A) (A) (A) (A) (A) (A) (A)
                 (A) (A) (A) (A) (A) (A) (A) (A) (A) (A) (A) (A)
                 (A) (A) (A) (A) (A) (A) (A) (A) (A) (A) (A) (A)
                 (A) (A) (A) (A) (A) (A) (A) (A) (A) (A) (A) (A)
                 (A) (A) (A) (A) (A) (A) (A)
       Virtual   (A) (A) (A) (A) (A) (A) (A) (A) (A) (A) (A) (A)
                 (A) (A) (A) (A) (A) (A) (A) (A) (A) (A) (A) (A)
                 (A) (A) (A) (A) (A) (A) (A) (A) (A) (A) (A) (A)
                 (A) (A) (A) (A) (A) (A) (A) (A) (A) (A) (A) (A)
                 (A) (A) (A) (A) (A) (A) (A) (A) (A) (A) (A) (A)
                 (A) (A) (A) (A) (A) (A) (A) (A) (A) (A) (A) (A)
                 (A) (A) (A) (A) (A) (A) (A) (A) (A) (A) (A) (A)
                 (A) (A) (A) (A) (A) (A) (A) (A) (A) (A) (A) (A)
                 (A) (A) (A) (A) (A) (A) (A) (A) (A) (A) (A) (A)
                 (A) (A) (A) (A) (A) (A) (A) (A) (A) (A) (A) (A)
                 (A) (A) (A) (A) (A) (A) (A) (A) (A) (A) (A) (A)
                 (A) (A) (A) (A) (A) (A) (A) (A) (A) (A) (A) (A)
                 (A) (A) (A) (A) (A) (A) (A) (A) (A) (A) (A) (A)
                 (A) (A) (A) (A) (A) (A) (A) (A) (A) (A) (A) (A)
                 (A) (A) (A) (A) (A) (A) (A) (A) (A) (A) (A) (A)
                 (A) (A) (A) (A) (A) (A) (A) (A) (A) (A) (A) (A)
                 (A) (A) (A) (A) (A) (A) (A) (A) (A) (A) (A) (A)
                 (A) (A) (A) (A) (A) (A) (A) (A) (A) (A) (A) (A)
                 (A) (A) (A) (A) (A) (A) (A) (A) (A) (A) (A) (A)
                 (A) (A) (A) (A) (A) (A) (A) (A) (A) (A) (A) (A)
                 (A) (A) (A) (A) (A) (A) (A) (A) (A) (A) (A) (A)
                 (A) (A) (A) (A) (A) (A) (A) (A) (A) (A) (A) (A)
                 (A) (A) (A) (A) (A) (A) (A) (A) (A) (A) (A) (A)
                 (A) (A) (A) (A) (A) (A) (A) (A) (A) (A) (A) (A)
                 (A) (A) (A) (A) (A) (A) (A) (A) (A) (A) (A) (A)
                 (A) (A) (A) (A) (A) (A) (A) (A) (A) (A) (A) (A)
                 (A) (A) (A) (A) (A) (A) (A) (A) (A) (A) (A) (A)
                 (A) (A) (A) (A) (A) (A) (A) (A) (A) (A) (A) (A)
                 (A) (A) (A) (A) (A) (A) (A) (A) (A) (A) (A) (A)
                 (A) (A) (A) (A) (A) (A) (A) (A) (A) (A) (A) (A)
                 (A) (A) (A) (A) (A) (A) (A) (A) (A) (A) (A) (A)
                 (A) (A) (A) (A) (A) (A) (A) (A) (A) (A) (A) (A)
                 (A) (A) (A) (A) (A) (A)
 The electronic state is 1-A.
 Alpha  occ. eigenvalues --  -19.19138 -19.18736 -19.18281 -19.18200 -19.17712
 Alpha  occ. eigenvalues --  -19.16793 -19.16563 -19.16400 -19.16324 -19.15723
 Alpha  occ. eigenvalues --  -19.13335 -10.30590 -10.28469 -10.25526 -10.25114
 Alpha  occ. eigenvalues --  -10.25069 -10.24958 -10.24803 -10.24771 -10.24742
 Alpha  occ. eigenvalues --  -10.24040 -10.23877 -10.22992  -1.07472  -1.06298
 Alpha  occ. eigenvalues --   -1.04300  -1.03972  -1.03790  -1.02189  -1.01328
 Alpha  occ. eigenvalues --   -1.00976  -1.00671  -0.99433  -0.98812  -0.80198
 Alpha  occ. eigenvalues --   -0.79717  -0.78285  -0.77043  -0.70334  -0.68633
 Alpha  occ. eigenvalues --   -0.65450  -0.63638  -0.62030  -0.60728  -0.58721
 Alpha  occ. eigenvalues --   -0.58631  -0.55218  -0.54144  -0.53926  -0.52554
 Alpha  occ. eigenvalues --   -0.52254  -0.52092  -0.51714  -0.50504  -0.50173
 Alpha  occ. eigenvalues --   -0.48485  -0.47775  -0.46437  -0.45994  -0.45501
 Alpha  occ. eigenvalues --   -0.44648  -0.43852  -0.42689  -0.42340  -0.42059
 Alpha  occ. eigenvalues --   -0.41197  -0.41157  -0.40297  -0.39235  -0.38776
 Alpha  occ. eigenvalues --   -0.38334  -0.38006  -0.37362  -0.36691  -0.35642
 Alpha  occ. eigenvalues --   -0.35290  -0.34483  -0.33710  -0.32554  -0.31907
 Alpha  occ. eigenvalues --   -0.31442  -0.30901  -0.30842  -0.30283  -0.29628
 Alpha  occ. eigenvalues --   -0.28925  -0.28136  -0.27784  -0.27220  -0.26977
 Alpha  occ. eigenvalues --   -0.25386
 Alpha virt. eigenvalues --   -0.02082  -0.01525  -0.01222  -0.00167   0.01572
 Alpha virt. eigenvalues --    0.01579   0.01907   0.02925   0.03528   0.03882
 Alpha virt. eigenvalues --    0.04644   0.04834   0.05401   0.05813   0.06464
 Alpha virt. eigenvalues --    0.06598   0.06898   0.07981   0.08360   0.08441
 Alpha virt. eigenvalues --    0.08619   0.09454   0.09835   0.10498   0.10996
 Alpha virt. eigenvalues --    0.11033   0.11493   0.11674   0.12456   0.12799
 Alpha virt. eigenvalues --    0.12965   0.13288   0.13482   0.13649   0.13846
 Alpha virt. eigenvalues --    0.14439   0.14811   0.15228   0.15700   0.15893
 Alpha virt. eigenvalues --    0.16278   0.16605   0.16843   0.17484   0.17847
 Alpha virt. eigenvalues --    0.17935   0.18042   0.18213   0.19155   0.19227
 Alpha virt. eigenvalues --    0.19365   0.19942   0.20082   0.20362   0.20612
 Alpha virt. eigenvalues --    0.20749   0.20942   0.21318   0.21412   0.21783
 Alpha virt. eigenvalues --    0.22209   0.22509   0.22804   0.23250   0.23535
 Alpha virt. eigenvalues --    0.23950   0.24221   0.24569   0.24690   0.24917
 Alpha virt. eigenvalues --    0.25153   0.25733   0.25980   0.26219   0.26299
 Alpha virt. eigenvalues --    0.26546   0.26932   0.27035   0.27292   0.27616
 Alpha virt. eigenvalues --    0.28504   0.28674   0.28955   0.29228   0.29522
 Alpha virt. eigenvalues --    0.29831   0.30105   0.30851   0.30973   0.31018
 Alpha virt. eigenvalues --    0.31556   0.31832   0.32204   0.32484   0.32808
 Alpha virt. eigenvalues --    0.33420   0.33771   0.34137   0.34365   0.34907
 Alpha virt. eigenvalues --    0.35424   0.35761   0.36356   0.36776   0.36965
 Alpha virt. eigenvalues --    0.37174   0.37521   0.37935   0.38388   0.38815
 Alpha virt. eigenvalues --    0.39269   0.39539   0.39755   0.39926   0.40607
 Alpha virt. eigenvalues --    0.40959   0.41606   0.41931   0.42372   0.43197
 Alpha virt. eigenvalues --    0.43855   0.44081   0.44340   0.44943   0.45252
 Alpha virt. eigenvalues --    0.46076   0.46654   0.46955   0.47679   0.48093
 Alpha virt. eigenvalues --    0.48627   0.49657   0.50449   0.51279   0.52740
 Alpha virt. eigenvalues --    0.54396   0.55366   0.56856   0.65411   0.67278
 Alpha virt. eigenvalues --    0.68001   0.68645   0.69419   0.70712   0.71097
 Alpha virt. eigenvalues --    0.72022   0.73197   0.74752   0.74879   0.76501
 Alpha virt. eigenvalues --    0.77284   0.78921   0.79150   0.80797   0.81518
 Alpha virt. eigenvalues --    0.82263   0.82958   0.83710   0.85053   0.86070
 Alpha virt. eigenvalues --    0.87084   0.88446   0.88915   0.89885   0.91114
 Alpha virt. eigenvalues --    0.92273   0.93835   0.94609   0.95819   0.96480
 Alpha virt. eigenvalues --    0.96635   0.99337   1.00209   1.01495   1.04345
 Alpha virt. eigenvalues --    1.04771   1.05488   1.05730   1.06795   1.07098
 Alpha virt. eigenvalues --    1.07833   1.08368   1.09586   1.10550   1.10810
 Alpha virt. eigenvalues --    1.11335   1.11575   1.12025   1.12135   1.13097
 Alpha virt. eigenvalues --    1.14911   1.15283   1.15491   1.17475   1.18720
 Alpha virt. eigenvalues --    1.19513   1.21855   1.23357   1.24179   1.24794
 Alpha virt. eigenvalues --    1.25074   1.26136   1.27712   1.28414   1.29020
 Alpha virt. eigenvalues --    1.29155   1.30317   1.31100   1.31189   1.31456
 Alpha virt. eigenvalues --    1.31932   1.32485   1.32794   1.33427   1.34336
 Alpha virt. eigenvalues --    1.35324   1.35619   1.36300   1.37463   1.38018
 Alpha virt. eigenvalues --    1.39299   1.40462   1.41462   1.41782   1.42229
 Alpha virt. eigenvalues --    1.43894   1.44514   1.45142   1.47345   1.48843
 Alpha virt. eigenvalues --    1.49822   1.50634   1.51384   1.52118   1.53518
 Alpha virt. eigenvalues --    1.54309   1.56535   1.57822   1.58359   1.59617
 Alpha virt. eigenvalues --    1.61222   1.63087   1.64605   1.65450   1.65673
 Alpha virt. eigenvalues --    1.67618   1.68188   1.69095   1.69162   1.70081
 Alpha virt. eigenvalues --    1.70523   1.71411   1.72598   1.73413   1.73825
 Alpha virt. eigenvalues --    1.74263   1.75535   1.75851   1.76590   1.77906
 Alpha virt. eigenvalues --    1.78990   1.80355   1.80633   1.81104   1.81419
 Alpha virt. eigenvalues --    1.83546   1.84379   1.85225   1.85340   1.86009
 Alpha virt. eigenvalues --    1.86763   1.87552   1.87838   1.88802   1.89533
 Alpha virt. eigenvalues --    1.89699   1.90209   1.90710   1.91026   1.91333
 Alpha virt. eigenvalues --    1.92197   1.93717   1.95390   1.95690   1.96119
 Alpha virt. eigenvalues --    1.97177   1.98033   1.98418   2.00308   2.01651
 Alpha virt. eigenvalues --    2.02451   2.03055   2.03690   2.04307   2.05753
 Alpha virt. eigenvalues --    2.06838   2.08252   2.09371   2.10317   2.11014
 Alpha virt. eigenvalues --    2.11773   2.12312   2.13272   2.14136   2.14933
 Alpha virt. eigenvalues --    2.15523   2.16516   2.17143   2.18865   2.20260
 Alpha virt. eigenvalues --    2.21182   2.22296   2.22965   2.24934   2.27390
 Alpha virt. eigenvalues --    2.30430   2.31357   2.33830   2.34813   2.35648
 Alpha virt. eigenvalues --    2.37981   2.39959   2.40892   2.43082   2.43621
 Alpha virt. eigenvalues --    2.45760   2.47527   2.48977   2.50205   2.51007
 Alpha virt. eigenvalues --    2.52196   2.53056   2.53511   2.55725   2.56269
 Alpha virt. eigenvalues --    2.56961   2.59395   2.60812   2.63841   2.65218
 Alpha virt. eigenvalues --    2.65457   2.65631   2.68462   2.68722   2.72220
 Alpha virt. eigenvalues --    2.74960   2.76562   2.77546   2.80876   2.81290
 Alpha virt. eigenvalues --    2.84096   2.87221   2.88661   2.92366   2.92734
 Alpha virt. eigenvalues --    2.95656   2.97031   2.99779   3.02827   3.03293
 Alpha virt. eigenvalues --    3.05571   3.07393   3.11947   3.15571   3.18407
 Alpha virt. eigenvalues --    3.21593   3.26539   4.16426   4.19710   4.25627
 Alpha virt. eigenvalues --    4.26790   4.30174   4.32184   4.34056   4.35220
 Alpha virt. eigenvalues --    4.36874   4.40765   4.42070   4.44510   4.47390
 Alpha virt. eigenvalues --    4.48482   4.56706   4.57408   4.68021   4.70793
 Alpha virt. eigenvalues --    4.72466   4.76176   4.77967   4.87308   4.96526
          Condensed to atoms (all electrons):
               1          2          3          4          5          6
     1  C   13.284929  -2.419073  -0.579308   1.156266  -1.557817  -0.098789
     2  C   -2.419073  11.970282  -2.321828  -2.393161   1.599606   0.358342
     3  C   -0.579308  -2.321828  11.864043  -0.792973  -1.032814   0.054644
     4  C    1.156266  -2.393161  -0.792973  11.066273  -3.748060   0.009689
     5  C   -1.557817   1.599606  -1.032814  -3.748060  13.238174  -0.006019
     6  H   -0.098789   0.358342   0.054644   0.009689  -0.006019   0.569349
     7  H    0.488773  -0.128670   0.023345   0.023641  -0.052220   0.004702
     8  H    0.007412   0.026708  -0.049342   0.430417  -0.144269   0.003164
     9  H    0.011071  -0.007571  -0.005160   0.033066   0.279824  -0.000054
    10  H   -0.018524  -0.101410   0.512040  -0.117870   0.009155   0.004503
    11  O    0.033105  -0.121068   0.068732   0.115664  -0.291857   0.001668
    12  C    0.279207  -0.373268   0.084117   0.673668  -2.381744   0.002012
    13  C   -0.102442   0.060379   0.041820  -0.267955   1.047893  -0.000300
    14  C    0.251061   0.088557  -0.012948  -0.156327  -0.759657   0.000615
    15  H   -0.000133   0.000732  -0.009397   0.017623   0.004911   0.000000
    16  C   -0.045779  -0.034516   0.057319  -0.093886  -0.096591   0.000018
    17  H    0.003468  -0.000795  -0.003660   0.011753   0.007996   0.000000
    18  H    0.004181   0.000295  -0.000663   0.000060   0.009717   0.000000
    19  C   -0.001104   0.012230  -0.014457   0.022417   0.080043  -0.000001
    20  H    0.000653  -0.000116  -0.000297   0.000494  -0.005902   0.000000
    21  H    0.000015  -0.000012   0.000008  -0.000005  -0.000189   0.000000
    22  O    0.002134  -0.001093  -0.000561  -0.003999  -0.005239   0.000000
    23  H   -0.000186  -0.000004  -0.000022  -0.000108   0.001088   0.000000
    24  O   -0.001115  -0.000994  -0.000288  -0.002987   0.030591   0.000000
    25  O    0.116440  -0.177194   0.107679  -0.040333  -0.032674   0.008322
    26  O    0.001671  -0.001990   0.001386  -0.016985  -0.099427  -0.000005
    27  H   -0.000009   0.000191  -0.000088   0.001957   0.000797   0.000000
    28  O   -0.124789   0.222258  -0.003675   0.005032   0.026068  -0.049308
    29  H    0.098967  -0.053158  -0.095169   0.045475  -0.010200  -0.002656
    30  O    0.066969  -0.086578   0.180666  -0.356307   0.232254  -0.002333
    31  H    0.003802  -0.019284   0.068343  -0.015647  -0.026049  -0.000100
    32  O    0.037413   0.043868  -0.130270   0.113853  -0.122390  -0.000876
    33  H   -0.001460   0.061319  -0.121751  -0.062462   0.116951   0.000008
    34  O    0.000172   0.000056   0.000379  -0.002121  -0.005077   0.000000
    35  H   -0.000021   0.000000   0.000011   0.000054   0.000237   0.000000
    36  C   -0.304425  -0.118101   0.041451  -0.058786   0.175565  -0.000370
    37  H    0.004725   0.000582  -0.000508   0.000085  -0.002586   0.000000
    38  H   -0.000627  -0.000134   0.001030  -0.000662   0.002852   0.000000
    39  C   -4.198085  -0.216750  -1.468155   0.117476  -0.262818  -0.060858
    40  H   -0.212789   0.040558  -0.008042  -0.002810   0.005168   0.000196
    41  H   -0.026125  -0.037936   0.001944   0.005138  -0.008326   0.001894
    42  O   -0.076587  -0.046029   0.046423  -0.008138   0.048283  -0.000360
    43  H    0.002903   0.014037  -0.002641  -0.002745   0.009482   0.000012
    44  O    0.278258  -0.002577   0.002543   0.008481  -0.028181  -0.000395
    45  H   -0.006306  -0.008895   0.001152   0.000217   0.002076   0.000002
               7          8          9         10         11         12
     1  C    0.488773   0.007412   0.011071  -0.018524   0.033105   0.279207
     2  C   -0.128670   0.026708  -0.007571  -0.101410  -0.121068  -0.373268
     3  C    0.023345  -0.049342  -0.005160   0.512040   0.068732   0.084117
     4  C    0.023641   0.430417   0.033066  -0.117870   0.115664   0.673668
     5  C   -0.052220  -0.144269   0.279824   0.009155  -0.291857  -2.381744
     6  H    0.004702   0.003164  -0.000054   0.004503   0.001668   0.002012
     7  H    0.481488  -0.000021  -0.000016   0.003051   0.006244   0.033201
     8  H   -0.000021   0.563942  -0.005101   0.004928   0.006246  -0.013408
     9  H   -0.000016  -0.005101   0.483946  -0.000070  -0.032008   0.106364
    10  H    0.003051   0.004928  -0.000070   0.499151   0.004187   0.006828
    11  O    0.006244   0.006246  -0.032008   0.004187   8.378238   0.010861
    12  C    0.033201  -0.013408   0.106364   0.006828   0.010861  20.054764
    13  C    0.001961   0.002038  -0.066506   0.003045  -0.031640  -8.075087
    14  C    0.034210  -0.000416  -0.011667   0.001474  -0.111346  -4.223413
    15  H   -0.000111   0.000000  -0.000743   0.000009  -0.044234   0.459883
    16  C    0.000040   0.000162  -0.008060   0.000964   0.097111  -1.569314
    17  H    0.000006   0.000001   0.000701   0.000007   0.007835  -0.098636
    18  H    0.000023   0.000000  -0.000016   0.000042   0.011521  -0.076037
    19  C    0.000632  -0.000024   0.000726  -0.000038   0.002164   1.443259
    20  H    0.000000   0.000000   0.000022   0.000000   0.000537   0.072603
    21  H    0.000000   0.000000   0.000000   0.000000   0.000115  -0.010025
    22  O    0.000013  -0.000001  -0.000002  -0.000002   0.007280  -0.059717
    23  H    0.000000   0.000000   0.000000   0.000000   0.000408  -0.034336
    24  O    0.000026  -0.000001   0.000000   0.000007   0.008054   0.089634
    25  O   -0.049416  -0.002272  -0.053521   0.003814  -0.033204   0.080084
    26  O    0.000003   0.000105  -0.008311  -0.000006   0.010522  -0.016774
    27  H    0.000000   0.000000   0.000590   0.000000   0.000004   0.111832
    28  O    0.004440  -0.000561   0.000101  -0.000619   0.002285   0.006722
    29  H   -0.000396   0.000004   0.000000  -0.000364   0.000060   0.000330
    30  O   -0.000253   0.002386  -0.000757  -0.047429  -0.013183  -0.015504
    31  H   -0.000004  -0.000139   0.000005  -0.007327   0.001046  -0.000594
    32  O   -0.000076  -0.044081   0.001519   0.000346   0.024687  -0.021957
    33  H   -0.000001  -0.003949  -0.000252  -0.000069  -0.003322  -0.003681
    34  O    0.000000   0.000000  -0.000035   0.000000  -0.000815   0.043014
    35  H    0.000000   0.000000  -0.000001   0.000000   0.000000  -0.003620
    36  C   -0.052216   0.000105   0.002141  -0.002384   0.065094  -0.824324
    37  H    0.000603   0.000000   0.000003   0.000000   0.001482  -0.032356
    38  H    0.000040   0.000000   0.000000   0.000001   0.000175  -0.009605
    39  C   -0.095701   0.007132   0.012797  -0.013189   0.050519   0.030719
    40  H   -0.002038  -0.000001   0.000003  -0.000016   0.000171  -0.002472
    41  H    0.004439  -0.000011  -0.000013  -0.000006   0.000015   0.004392
    42  O   -0.023918  -0.000050  -0.000041  -0.000240  -0.005598   0.007678
    43  H    0.002316   0.000000  -0.000004   0.000032  -0.001609   0.004639
    44  O    0.004660   0.000005   0.000219  -0.000101   0.003981   0.014720
    45  H    0.000218   0.000000   0.000000   0.000000  -0.000009   0.001657
              13         14         15         16         17         18
     1  C   -0.102442   0.251061  -0.000133  -0.045779   0.003468   0.004181
     2  C    0.060379   0.088557   0.000732  -0.034516  -0.000795   0.000295
     3  C    0.041820  -0.012948  -0.009397   0.057319  -0.003660  -0.000663
     4  C   -0.267955  -0.156327   0.017623  -0.093886   0.011753   0.000060
     5  C    1.047893  -0.759657   0.004911  -0.096591   0.007996   0.009717
     6  H   -0.000300   0.000615   0.000000   0.000018   0.000000   0.000000
     7  H    0.001961   0.034210  -0.000111   0.000040   0.000006   0.000023
     8  H    0.002038  -0.000416   0.000000   0.000162   0.000001   0.000000
     9  H   -0.066506  -0.011667  -0.000743  -0.008060   0.000701  -0.000016
    10  H    0.003045   0.001474   0.000009   0.000964   0.000007   0.000042
    11  O   -0.031640  -0.111346  -0.044234   0.097111   0.007835   0.011521
    12  C   -8.075087  -4.223413   0.459883  -1.569314  -0.098636  -0.076037
    13  C   17.310396   0.310023  -0.046780  -2.979431   0.398750  -0.052711
    14  C    0.310023  13.898120  -0.176060   0.815686  -0.037414   0.397368
    15  H   -0.046780  -0.176060   0.529724  -0.038875   0.004637   0.004820
    16  C   -2.979431   0.815686  -0.038875  10.770506  -0.075077   0.002215
    17  H    0.398750  -0.037414   0.004637  -0.075077   0.490998   0.001195
    18  H   -0.052711   0.397368   0.004820   0.002215   0.001195   0.524244
    19  C   -1.045035  -1.374278   0.030057  -1.160577   0.056894  -0.009274
    20  H   -0.149422   0.007798   0.002368   0.363507   0.004855  -0.000013
    21  H   -0.008421   0.033781  -0.000016   0.022127  -0.000190  -0.000092
    22  O   -0.046832   0.207586   0.000642  -0.296129   0.008158   0.008178
    23  H    0.020698  -0.036064   0.000007   0.019661  -0.000069  -0.000438
    24  O   -0.081684   0.086918   0.006006  -0.110578   0.000994  -0.032924
    25  O   -0.002670  -0.032899   0.016499   0.004256  -0.000026   0.000708
    26  O   -0.157172   0.107860   0.008255   0.074417  -0.033823  -0.000287
    27  H   -0.042467  -0.021576  -0.000102  -0.083176  -0.003531   0.000004
    28  O   -0.000276  -0.003960   0.000005   0.000031   0.000000   0.000000
    29  H   -0.000163  -0.000258   0.000000  -0.000006   0.000000   0.000000
    30  O    0.002867  -0.000980  -0.000002  -0.000831  -0.000003  -0.000007
    31  H    0.000241  -0.000210   0.000000   0.000025   0.000000   0.000000
    32  O    0.040025  -0.001619   0.000145   0.003764   0.000322   0.000003
    33  H   -0.000178   0.000790   0.000001  -0.001063   0.000005   0.000000
    34  O    0.123279   0.033093  -0.000397  -0.082831  -0.000432   0.000039
    35  H    0.016061  -0.004036   0.000011   0.067845  -0.000112   0.000001
    36  C    0.089676  -2.188044  -0.011454   0.398013  -0.006503  -0.026646
    37  H    0.004531  -0.033263   0.004119  -0.003324   0.000000   0.004438
    38  H    0.004742  -0.203254   0.000139   0.010670   0.000002  -0.004657
    39  C   -0.096870  -0.109335   0.010422   0.004428   0.000795   0.001317
    40  H    0.000148  -0.001743  -0.000001   0.000001   0.000000   0.000000
    41  H    0.000402   0.001718  -0.000004   0.000020   0.000000   0.000000
    42  O   -0.012068  -0.238123   0.001916   0.021684  -0.000034   0.005734
    43  H    0.001168  -0.001306   0.000043  -0.000315   0.000000  -0.000027
    44  O   -0.014919   0.049057   0.000912   0.002081   0.000010   0.000054
    45  H   -0.000180  -0.005859   0.000009   0.000022   0.000000   0.000000
              19         20         21         22         23         24
     1  C   -0.001104   0.000653   0.000015   0.002134  -0.000186  -0.001115
     2  C    0.012230  -0.000116  -0.000012  -0.001093  -0.000004  -0.000994
     3  C   -0.014457  -0.000297   0.000008  -0.000561  -0.000022  -0.000288
     4  C    0.022417   0.000494  -0.000005  -0.003999  -0.000108  -0.002987
     5  C    0.080043  -0.005902  -0.000189  -0.005239   0.001088   0.030591
     6  H   -0.000001   0.000000   0.000000   0.000000   0.000000   0.000000
     7  H    0.000632   0.000000   0.000000   0.000013   0.000000   0.000026
     8  H   -0.000024   0.000000   0.000000  -0.000001   0.000000  -0.000001
     9  H    0.000726   0.000022   0.000000  -0.000002   0.000000   0.000000
    10  H   -0.000038   0.000000   0.000000  -0.000002   0.000000   0.000007
    11  O    0.002164   0.000537   0.000115   0.007280   0.000408   0.008054
    12  C    1.443259   0.072603  -0.010025  -0.059717  -0.034336   0.089634
    13  C   -1.045035  -0.149422  -0.008421  -0.046832   0.020698  -0.081684
    14  C   -1.374278   0.007798   0.033781   0.207586  -0.036064   0.086918
    15  H    0.030057   0.002368  -0.000016   0.000642   0.000007   0.006006
    16  C   -1.160577   0.363507   0.022127  -0.296129   0.019661  -0.110578
    17  H    0.056894   0.004855  -0.000190   0.008158  -0.000069   0.000994
    18  H   -0.009274  -0.000013  -0.000092   0.008178  -0.000438  -0.032924
    19  C    7.672284  -0.034683   0.306116   0.217687   0.067527   0.092638
    20  H   -0.034683   0.556210  -0.003774   0.010200  -0.000244   0.005284
    21  H    0.306116  -0.003774   0.592661  -0.044672  -0.006446  -0.070136
    22  O    0.217687   0.010200  -0.044672   8.491662   0.135331  -0.064169
    23  H    0.067527  -0.000244  -0.006446   0.135331   0.356312  -0.004388
    24  O    0.092638   0.005284  -0.070136  -0.064169  -0.004388   8.352148
    25  O   -0.000469   0.000089   0.000000  -0.000038  -0.000001  -0.000407
    26  O    0.053017   0.010712  -0.000767   0.001591   0.000046  -0.000801
    27  H    0.021903  -0.000634  -0.000006   0.000288   0.000001   0.000073
    28  O    0.000046   0.000000   0.000000  -0.000001   0.000000   0.000007
    29  H    0.000000   0.000000   0.000000   0.000000   0.000000   0.000000
    30  O   -0.000031   0.000000   0.000000  -0.000001   0.000000   0.000003
    31  H    0.000004   0.000000   0.000000   0.000000   0.000000   0.000000
    32  O    0.001069   0.000015   0.000000  -0.000234  -0.000003  -0.000044
    33  H   -0.000028   0.000000   0.000000  -0.000001   0.000000   0.000000
    34  O   -0.110581  -0.050649  -0.004385   0.024217  -0.002415   0.012130
    35  H   -0.049813  -0.006151   0.002427  -0.002467  -0.000016  -0.000339
    36  C   -0.520146  -0.002769   0.012499   0.016155   0.004372  -0.064789
    37  H    0.005899   0.000005  -0.000001   0.000171  -0.000001   0.005031
    38  H   -0.022334  -0.000001   0.000004  -0.000360   0.000021  -0.000324
    39  C   -0.000911   0.000354   0.000003   0.000408  -0.000003  -0.000706
    40  H    0.000007   0.000000   0.000000   0.000000   0.000000   0.000000
    41  H   -0.000008   0.000000   0.000000   0.000000   0.000000   0.000000
    42  O   -0.011993  -0.000029   0.000059   0.000977  -0.000011   0.009670
    43  H    0.000565   0.000000   0.000000  -0.000005   0.000000   0.000120
    44  O    0.000299   0.000008   0.000000   0.000022   0.000000   0.000173
    45  H   -0.000022   0.000000   0.000000   0.000000   0.000000   0.000004
              25         26         27         28         29         30
     1  C    0.116440   0.001671  -0.000009  -0.124789   0.098967   0.066969
     2  C   -0.177194  -0.001990   0.000191   0.222258  -0.053158  -0.086578
     3  C    0.107679   0.001386  -0.000088  -0.003675  -0.095169   0.180666
     4  C   -0.040333  -0.016985   0.001957   0.005032   0.045475  -0.356307
     5  C   -0.032674  -0.099427   0.000797   0.026068  -0.010200   0.232254
     6  H    0.008322  -0.000005   0.000000  -0.049308  -0.002656  -0.002333
     7  H   -0.049416   0.000003   0.000000   0.004440  -0.000396  -0.000253
     8  H   -0.002272   0.000105   0.000000  -0.000561   0.000004   0.002386
     9  H   -0.053521  -0.008311   0.000590   0.000101   0.000000  -0.000757
    10  H    0.003814  -0.000006   0.000000  -0.000619  -0.000364  -0.047429
    11  O   -0.033204   0.010522   0.000004   0.002285   0.000060  -0.013183
    12  C    0.080084  -0.016774   0.111832   0.006722   0.000330  -0.015504
    13  C   -0.002670  -0.157172  -0.042467  -0.000276  -0.000163   0.002867
    14  C   -0.032899   0.107860  -0.021576  -0.003960  -0.000258  -0.000980
[...]
 2923,-0.00068533,-0.00052046,0.00020089,-0.00063411,-0.00069196,0.0017
 9205,0.00041342,0.00006927,-0.00046350,-0.00638988,-0.00762184,0.00225
 250,0.00226043,0.00276175,0.00138259,0.00034680,-0.00180882,-0.0001073
 6,-0.00002282,-0.00003128,-0.00010563,0.00004769,0.00052625,-0.0001725
 6,0.00000075,-0.00009684,0.00011269,0.00022913,0.00067805,0.00009242,-
 0.00012396,-0.00001082,-0.00007701,0.00103988,0.00064586,0.00000459,-0
 .00086985,0.00013362,0.00005166,-0.00030636,-0.00123023,0.00010687,0.0
 0014573,0.00024103,0.00004670,-0.15361835,-0.04012681,-0.08343274,0.00
 598651,-0.00186098,-0.00201405,-0.02539632,-0.01268586,-0.02801358,0.0
 0167160,-0.00486185,0.00099840,-0.00040381,0.00055299,-0.00002600,-0.0
 0101582,0.00099781,0.00018481,0.58695108,-0.00118281,-0.00062446,0.000
 86384,0.00003799,0.00019560,-0.00063656,-0.00031232,0.00024554,-0.0000
 4275,0.00000313,0.00018402,-0.00003265,-0.00182015,0.00046626,0.001543
 00,0.00018781,-0.00019779,0.00002768,-0.00034019,0.00006610,-0.0008803
 9,0.00007649,-0.00007840,-0.00000708,0.00008985,0.00004492,-0.00012865
 ,0.00000732,0.00004301,-0.00009625,0.00110269,-0.00236263,-0.00169687,
 0.00014290,0.00015729,0.00063814,0.00020835,0.00028269,0.00017977,-0.0
 2111884,-0.00612422,-0.01830274,-0.00009399,-0.00006027,0.00025841,0.0
 0035542,0.00031348,0.00009158,-0.00003414,-0.00006716,0.00002123,0.000
 51651,0.00247813,-0.00201744,0.00029953,0.00157900,-0.00204300,-0.0000
 2717,-0.00000630,0.00001106,-0.00049149,-0.00036509,0.00020000,-0.0002
 0447,-0.00018278,0.00094514,0.00016048,-0.00007567,-0.00021884,-0.0045
 5692,-0.00470635,0.00093689,0.00132160,0.00025233,-0.00017079,-0.00005
 162,-0.00062977,-0.00009588,0.00004547,0.00007604,-0.00000529,0.000370
 83,0.00011258,0.00024467,-0.00006410,-0.00000119,-0.00001475,0.0003287
 1,-0.00023551,0.00010883,-0.00007011,0.00007957,-0.00004453,0.00023551
 ,-0.00021714,-0.00001484,-0.00014761,0.00027366,0.00002672,-0.00036209
 ,-0.00050401,0.00011233,0.00005836,0.00009017,0.00001105,-0.03100283,-
 0.07260238,-0.04335706,-0.00943230,-0.00324386,-0.01058666,0.00440381,
 0.01582860,0.00854686,0.00031215,-0.00289807,0.00038501,-0.00019665,0.
 00032320,-0.00000729,-0.00032102,0.00061965,-0.00006368,0.11716351,0.0
 7605533,-0.00023072,-0.00015774,-0.00197860,-0.00016968,-0.00013303,0.
 00022866,0.00001736,-0.00014984,-0.00018579,-0.00012895,0.00001682,-0.
 00002913,-0.00056593,-0.00005777,-0.00027813,-0.00012148,0.00014925,0.
 00004214,0.00007719,-0.00041936,0.00034252,0.00002350,-0.00000206,0.00
 001562,0.00009752,0.00015250,0.00019882,-0.00003280,-0.00003644,0.0000
 3999,0.00110060,0.00018662,0.00058003,-0.00197166,0.00027504,0.0001193
 8,0.00044378,0.00003114,-0.00006518,-0.00125601,-0.00560122,0.00635698
 ,0.00007152,0.00054176,0.00053300,0.00023235,0.00014126,-0.00007307,-0
 .00007904,-0.00016821,0.00005394,0.00039239,-0.00054561,0.00236031,0.0
 0093383,0.00042230,-0.00088145,0.00001845,0.00002456,0.00005286,-0.000
 00749,0.00001994,0.00004930,-0.00009814,-0.00000549,0.00060846,-0.0001
 3308,-0.00003453,-0.00019663,0.00294566,0.00057015,0.00111730,0.000892
 46,0.00017253,0.00102697,-0.00002810,-0.00052351,0.00005033,0.00001436
 ,-0.00003145,-0.00006416,0.00005566,0.00006020,0.00024379,0.00001317,-
 0.00003118,-0.00000454,0.00008161,0.00010061,0.00016555,-0.00003682,-0
 .00000083,-0.00007032,0.00025114,0.00001128,0.00011824,-0.00019631,0.0
 0006389,-0.00005470,-0.00018524,-0.00020846,0.00012941,0.00002347,0.00
 001765,-0.00003428,-0.03647206,-0.02928545,-0.15886218,-0.03111653,-0.
 01377898,-0.02695286,-0.01497571,-0.00285407,-0.00718384,0.00052601,0.
 00069079,-0.00021152,0.00025607,-0.00014467,-0.00002997,-0.00006701,-0
 .00008267,0.00014170,-0.07396735,0.04906688,0.31371753,0.00148499,0.00
 172276,0.00106197,-0.00067280,0.00000616,-0.00038587,0.00055941,0.0003
 1301,-0.00001789,0.00020123,0.00017901,0.00021127,0.00311562,0.0009321
 9,-0.00147358,0.00000380,0.00000189,0.00005343,0.00016784,0.00067660,-
 0.00028458,-0.00010638,0.00009098,0.00002265,-0.00025327,-0.00021851,-
 0.00002285,-0.00001245,-0.00006238,0.00007332,-0.00239459,0.00082425,0
 .00109842,0.00170808,-0.00075842,0.00001778,-0.00030173,-0.00043056,-0
 .00000594,-0.00100894,0.00044011,-0.00080326,-0.00010826,0.00003130,-0
 .00007588,-0.00020011,-0.00034958,-0.00004103,0.00003889,0.00002993,0.
 00002047,-0.00006573,-0.00028356,0.00000053,-0.00070598,-0.00091237,0.
 00051831,0.00000563,0.00001041,-0.00000787,0.00018870,0.00012355,-0.00
 002106,0.00040744,0.00033507,-0.00039262,-0.00026123,-0.00006368,0.000
 15177,0.00129259,0.00113923,0.00006703,-0.00251427,-0.00176404,-0.0006
 8152,-0.00019529,0.00078595,0.00012424,0.00001288,-0.00002224,0.000032
 23,-0.00012902,-0.00045865,0.00026019,-0.00000359,0.00005507,-0.000125
 72,-0.00025970,-0.00053855,-0.00002280,0.00009636,-0.00001790,0.000042
 31,-0.00069286,-0.00040423,0.00001472,0.00048780,-0.00014532,-0.000054
 07,0.00016413,0.00047526,-0.00003577,-0.00005697,-0.00009707,-0.000024
 71,-0.02363819,-0.00296269,0.00656546,0.00363136,0.00132125,0.00254247
 ,-0.00022431,-0.00144665,-0.00065040,-0.00370493,0.00802175,-0.0010266
 5,0.00070931,-0.00082956,0.00006793,0.00140156,-0.00167763,-0.00020802
 ,-0.37043163,-0.05315110,0.15040519,0.39078430,0.00234722,-0.00022115,
 -0.00124165,-0.00003284,-0.00035292,0.00079860,0.00009285,-0.00029177,
 0.00008888,0.00004281,-0.00016715,-0.00008671,-0.00063871,-0.00152965,
 -0.00029266,-0.00022361,0.00027615,-0.00002572,0.00046701,-0.00126797,
 0.00106251,0.00001226,0.00000312,0.00000025,0.00003972,0.00004107,0.00
 005810,-0.00001924,-0.00002663,0.00003401,0.00118828,0.00077315,0.0000
 9892,-0.00180809,-0.00031976,0.00019576,0.00011834,-0.00004666,-0.0001
 4036,-0.00389942,-0.00236445,-0.00297067,0.00005768,-0.00004589,-0.000
 04000,-0.00008728,0.00010400,0.00001691,-0.00000350,0.00001096,0.00000
 144,-0.00016779,0.00023578,-0.00044971,-0.00030547,0.00023518,-0.00025
 576,-0.00000146,-0.00000366,-0.00000041,-0.00008897,-0.00009774,0.0000
 3929,0.00005577,-0.00002432,0.00004557,-0.00002377,-0.00000723,0.00000
 077,-0.00094225,-0.00117879,0.00015688,-0.00075915,0.00137584,0.000618
 30,0.00011844,-0.00010559,0.00001512,-0.00001840,-0.00004540,-0.000021
 54,-0.00030066,0.00002528,-0.00024641,0.00001853,-0.00003161,0.0000237
 4,-0.00015699,0.00029822,-0.00007263,0.00001666,-0.00005059,0.00001345
 ,0.00012177,0.00036527,-0.00003638,-0.00014448,-0.00010844,0.00001148,
 0.00011649,-0.00002751,-0.00002453,0.00000214,0.00001386,0.00000468,-0
 .01158686,-0.00701879,0.00721323,-0.00035321,0.00150835,0.00054880,0.0
 0229037,0.00019954,0.00187673,0.00163394,0.00296446,-0.00156130,0.0002
 6547,-0.00040177,0.00001397,0.00045876,-0.00079525,0.00015376,-0.03964
 855,-0.00930339,0.00124850,0.05312656,0.02635740,-0.00010583,-0.000607
 85,0.00195302,0.00033129,0.00008904,-0.00021994,-0.00013845,0.00000700
 ,0.00008435,0.00009904,-0.00003697,-0.00002049,-0.00120810,-0.00057656
 ,0.00058635,0.00012242,-0.00015568,-0.00003770,-0.00003474,0.00066893,
 -0.00037085,0.00003433,-0.00003251,-0.00001483,0.00002740,0.00001332,-
 0.00003405,0.00002090,0.00003130,-0.00004664,0.00069054,-0.00026959,-0
 .00056382,-0.00041591,-0.00001173,0.00048831,0.00006768,0.00006457,-0.
 00003671,-0.00143741,0.00113422,-0.00304160,-0.00003254,0.00004218,-0.
 00001663,0.00000764,0.00013865,0.00006139,0.00001033,0.00000618,-0.000
 00908,0.00012844,-0.00006472,0.00024746,0.00011856,0.00030574,-0.00038
 230,-0.00000560,-0.00000425,-0.00000401,-0.00010891,-0.00008383,0.0000
 1956,-0.00008029,-0.00009994,0.00027197,0.00003523,-0.00000861,-0.0000
 4978,-0.00126860,-0.00129767,0.00056051,0.00007566,0.00116445,-0.00055
 787,0.00005745,-0.00021187,-0.00004363,-0.00000476,0.00000319,-0.00000
 856,-0.00000857,0.00012277,-0.00021987,-0.00000844,0.00000372,0.000010
 33,0.00003401,0.00007605,-0.00006851,-0.00001304,0.00000473,0.00001688
 ,0.00012409,0.00019166,-0.00008123,-0.00012709,0.00001753,0.00003881,-
 0.00002882,-0.00018134,-0.00000496,0.00002139,0.00003700,0.00001383,-0
 .03373766,-0.00530903,0.00835121,-0.00165265,-0.00119050,-0.00001054,-
 0.00351060,-0.00105721,-0.00313546,-0.00010147,-0.00314158,0.00022201,
 -0.00072892,0.00068490,0.00001959,-0.00023210,0.00040765,-0.00006941,0
 .20034363,0.01556926,-0.13310954,-0.15707280,-0.00812620,0.13369026,0.
 01120609,-0.01100034,-0.00116546,-0.00268216,-0.00408879,0.00004809,0.
 00052358,-0.00057484,0.00005103,-0.00037929,-0.00017034,-0.00011945,-0
 .00126034,-0.00057641,0.00137404,0.00016415,-0.00049722,-0.00016167,0.
 00161089,0.00088699,-0.00062068,0.00006837,-0.00007997,-0.00004691,0.0
 0024649,0.00026077,0.00000969,0.00001348,0.00016630,-0.00004000,0.0016
 3913,-0.00050514,-0.00063959,-0.00125709,0.00053111,0.00002717,0.00017
 880,0.00030417,-0.00000168,0.00019245,0.00032860,-0.00033842,0.0000810
 1,-0.00003497,0.00002877,0.00009726,0.00022891,0.00003026,-0.00002465,
 -0.00001576,-0.00001055,-0.00000772,0.00010633,-0.00015351,0.00045712,
 0.00060995,-0.00039046,-0.00000194,-0.00000678,0.00000760,-0.00011193,
 -0.00008933,0.00001201,-0.00023717,-0.00021827,0.00027495,0.00015791,0
 .00004353,-0.00009344,-0.00093593,-0.00101311,0.00010177,0.00361877,0.
 00091350,0.00064285,0.00017918,-0.00052188,-0.00007333,-0.00001822,0.0
 0002205,-0.00002623,0.00058628,0.00152279,-0.00040594,0.00016159,0.000
 09503,0.00020005,0.00011697,0.00002694,0.00011226,-0.00000670,-0.00010
 743,0.00000545,0.00061143,0.00022757,0.00004765,-0.00036261,0.00011276
 ,0.00003128,-0.00007854,-0.00031952,0.00001812,0.00003359,0.00006684,0
 .00001690,0.00238167,0.00191165,0.00428240,0.00027056,0.00000788,-0.00
 056497,-0.00058389,-0.00018804,-0.00049929,-0.15090269,0.03551895,-0.0
 0610777,-0.01963583,0.02999576,0.00065653,-0.01729735,0.02573031,-0.00
 099523,-0.01292193,-0.00342115,0.00200589,-0.00114770,0.00156321,0.001
 86215,0.36115406,0.02876864,-0.04074784,0.00368502,-0.00793936,-0.0042
 8264,-0.00082390,0.00291552,0.00074408,0.00013893,0.00081613,0.0005776
 8,0.00059422,0.00266634,0.00129906,-0.00072402,-0.00012352,0.00026560,
 0.00013137,0.00104643,0.00246069,-0.00068101,-0.00009292,0.00006874,-0
 .00000664,-0.00030333,-0.00012342,-0.00007523,-0.00017427,-0.00019027,
 0.00014179,-0.00218372,0.00032879,0.00064752,0.00148358,-0.00037575,0.
 00010289,-0.00008541,-0.00018247,-0.00006957,0.00014223,-0.00034412,0.
 00008823,-0.00008719,0.00001390,-0.00005246,0.00008807,-0.00012236,0.0
 0000125,0.00003258,0.00001034,-0.00000317,0.00004364,-0.00000304,0.000
 03861,-0.00006962,-0.00031744,0.00002816,-0.00000723,0.00000012,-0.000
 00660,0.00000200,0.00005269,0.00000668,0.00001224,0.00012709,-0.000002
 77,-0.00003446,-0.00003533,0.00000582,0.00008438,0.00061575,0.00001958
 ,-0.00132936,-0.00011061,-0.00049913,-0.00037520,0.00031304,0.00002911
 ,0.00007044,0.00002253,0.00003914,0.00032877,-0.00022534,0.00096385,-0
 .00018043,0.00010155,-0.00025576,-0.00057151,-0.00221889,0.00013915,0.
 00025656,-0.00010884,0.00014211,-0.00107820,-0.00075861,-0.00014919,0.
 00056140,-0.00004064,-0.00004957,-0.00013954,0.00011245,0.00003471,-0.
 00000319,-0.00002763,-0.00001202,-0.00089706,-0.00029955,-0.00095404,0
 .00026405,-0.00024906,0.00023732,-0.00008365,0.00000703,0.00006128,0.0
 8258101,-0.15451001,0.00739346,0.00836077,-0.00642357,0.00386443,0.015
 48969,-0.01405120,-0.00311849,-0.00027966,0.00500404,0.00071873,-0.001
 49308,-0.00964614,0.00079128,0.10369716,0.59700253,-0.00468040,0.00489
 783,0.00046748,0.00021809,0.00014583,-0.00043309,-0.00031575,-0.000003
 55,0.00020225,-0.00011030,0.00002636,-0.00016577,0.00070538,0.00019250
 ,-0.00002715,-0.00034156,0.00048314,0.00022660,-0.00151092,-0.00099575
 ,0.00055267,-0.00002157,0.00003464,0.00004011,0.00007617,0.00007542,0.
 00000823,-0.00004182,-0.00007892,0.00002791,-0.00037446,0.00011374,0.0
 0027995,0.00020865,-0.00012870,-0.00014112,-0.00005022,-0.00006322,-0.
 00002277,-0.00000216,-0.00004050,0.00023502,0.00000495,0.00003269,0.00
 003468,-0.00003339,-0.00005717,-0.00003373,-0.00000190,-0.00000861,0.0
 0001672,-0.00007939,-0.00012364,0.00008850,-0.00012192,-0.00015866,0.0
 0001204,0.00000571,0.00000602,0.00001243,0.00004398,0.00002166,0.00000
 553,0.00009259,0.00007365,0.00000849,-0.00007552,-0.00001567,0.0000033
 9,0.00033431,0.00027570,0.00005294,0.00077155,-0.00042178,0.00151659,-
 0.00000680,0.00011927,0.00006453,-0.00000545,-0.00000488,-0.00001397,0
 .00023994,0.00057715,0.00055420,0.00021375,0.00011497,0.00005967,0.000
 10148,0.00023197,0.00010289,-0.00000696,0.00001433,-0.00004871,0.00002
 174,-0.00003728,0.00011642,0.00004036,-0.00001409,-0.00002907,0.000025
 98,0.00008512,0.00002165,-0.00000952,-0.00002265,-0.00001637,-0.000538
 57,-0.00098510,-0.00227939,0.00009731,0.00032871,0.00051469,0.00039916
 ,0.00011043,0.00032141,-0.00489188,-0.00001360,-0.06119276,-0.01473369
 ,0.02124459,0.00549765,0.01711778,-0.02175523,0.01024409,0.00428106,0.
 00118757,0.00280318,0.00101636,-0.00021752,-0.00533590,0.01800651,0.01
 623490,0.04735064,-0.00411560,0.00305538,-0.00002232,0.00113020,0.0010
 8055,-0.00022317,-0.00037824,0.00003699,-0.00010029,-0.00012795,-0.000
 06290,-0.00005277,0.00027056,0.00014598,-0.00000465,0.00006068,-0.0000
 9573,0.00002441,0.00001710,-0.00007838,-0.00018601,0.00000079,0.000004
 65,0.00000826,0.00001200,-0.00000645,-0.00000183,0.00001789,0.00000244
 ,-0.00000759,-0.00008866,-0.00004115,0.00003693,0.00006662,0.00001046,
 0.00000169,0.00000122,0.00000223,-0.00000386,0.00002702,-0.00001840,-0
 .00000421,0.00000156,-0.00000050,-0.00000102,0.00000560,-0.00001001,0.
 00000312,-0.00000115,-0.00000166,0.00000069,0.00000201,-0.00000019,-0.
 00000993,-0.00000015,-0.00001228,-0.00001055,-0.00000042,0.,-0.0000007
 3,-0.00000371,-0.00000046,0.00000118,-0.00000301,0.00000524,0.00000732
 ,-0.00000203,-0.00000663,-0.00000118,-0.00003497,0.00002751,0.00000532
 ,0.00012019,-0.00065501,0.00015975,-0.00000689,0.00000701,0.00000151,-
 0.00000024,-0.00000384,0.00000147,-0.00011363,-0.00011096,-0.00001427,
 0.00002985,0.00000029,-0.00000433,0.00006365,0.00022312,-0.00001093,-0
 .00003464,0.00003645,-0.00001686,0.00003656,-0.00003193,0.00003093,0.0
 0000223,0.00000966,-0.00000399,-0.00000495,0.00000771,0.00000041,-0.00
 000084,-0.00000364,-0.00000040,0.00024346,0.00016043,0.00025466,0.0001
 9150,-0.00001973,0.00002457,-0.00011866,-0.00003816,-0.00002216,0.0113
 2292,0.03028711,0.00085401,0.00063209,0.00085889,-0.00055159,-0.000629
 90,0.00085857,0.00055021,-0.00189855,0.00097464,0.00096096,0.00262800,
 -0.00294355,-0.00214888,-0.17589716,-0.23217971,-0.01606866,0.16657767
 ,0.00569720,-0.00442465,-0.00017648,-0.00183750,-0.00101626,-0.0000859
 9,0.00054843,-0.00009653,0.00005606,0.00005250,-0.00000657,0.00002371,
 -0.00039452,-0.00034221,0.00018432,0.00001854,-0.00002555,-0.00005518,
 0.00021002,0.00047854,-0.00007885,0.00000631,-0.00000912,-0.00001057,0
 .00003345,0.00004567,0.00000817,-0.00002699,-0.00000059,0.00001265,0.0
 0028953,0.00003078,-0.00012216,-0.00017388,0.00002325,-0.00002751,-0.0
 0000235,-0.00001514,0.00001205,-0.00007490,-0.00000318,-0.00000049,0.0
 0000615,-0.00000227,0.00000395,-0.00003056,-0.00000252,-0.00000092,-0.
 00000487,-0.00000105,0.00000300,-0.00000474,-0.00000267,0.00000264,-0.
 00005436,-0.00001811,0.00005243,0.00000128,-0.00000047,0.00000054,0.00
 001736,0.00000211,-0.00000328,0.00003321,0.00000162,-0.00003954,-0.000
 01573,0.00000362,0.00001140,0.00012580,0.00000765,-0.00002495,0.000782
 72,0.00121993,0.00029803,0.00004783,0.00002054,0.00000169,-0.00001361,
 -0.00001045,-0.00000303,0.00009564,0.00039568,-0.00004857,0.00003624,0
 .00003729,0.00004850,-0.00012165,-0.00012084,0.00000007,0.00004573,-0.
 00005364,0.00003602,0.00003866,0.00012253,-0.00003236,-0.00004167,-0.0
 0002675,0.00001050,0.00004640,0.00002171,-0.00001176,-0.00000699,-0.00
 000271,0.00000037,-0.00016472,-0.00001183,-0.00006767,-0.00006457,0.00
 000481,-0.00004202,0.00009830,0.00000400,0.00001809,-0.02010086,-0.023
 93584,-0.00180585,-0.00066048,0.00247983,0.00107861,-0.00050587,0.0002
 9096,-0.00032490,0.00154783,-0.00028476,-0.00042980,-0.00255453,0.0006
 9260,0.00089235,-0.18144978,-0.37373292,-0.02148167,0.19852599,0.39826
 351,-0.00139511,0.00237635,-0.00090308,0.00058328,0.00057769,0.0006518
 5,-0.00023427,-0.00003609,-0.00000332,-0.00010280,-0.00006349,0.000023
 74,0.00016199,0.00001893,0.00005635,-0.00003326,0.00001214,-0.00006387
 ,-0.00015371,0.00001202,0.00016250,0.00001149,-0.00000507,-0.00000838,
 -0.00001265,-0.00001542,-0.00000959,0.00001089,0.00001038,-0.00001440,
 0.00004492,-0.00002125,-0.00002328,-0.00003419,0.00002717,0.00003601,0
 .00000664,0.00002034,0.00001497,-0.00000837,0.00002162,-0.00001431,-0.
 00000033,-0.00000869,-0.00001003,0.00000631,0.00000835,0.00001472,-0.0
 0000090,0.00000305,-0.00000578,0.00001375,0.00002358,-0.00001366,0.000
 01800,0.00002662,0.00004333,-0.00000211,-0.00000258,-0.00000708,-0.000
 01040,-0.00000285,-0.00000465,-0.00002196,-0.00002068,-0.00004191,0.00
 002322,0.00000630,0.00001148,-0.00005099,-0.00004333,-0.00003664,-0.00
 017074,-0.00058448,-0.00004721,0.00000328,-0.00002980,-0.00002470,0.00
 000155,0.00000252,0.00000802,-0.00004317,-0.00025602,-0.00019893,-0.00
 000726,-0.00004093,0.00001889,0.00003054,0.00013443,-0.00005948,-0.000
 02112,0.00002994,0.00000096,0.00002494,-0.00002897,-0.00001098,-0.0000
 0987,0.00001003,0.00000720,-0.00000338,-0.00001684,-0.00001336,0.00000
 185,0.00000586,0.00000824,0.00025484,-0.00000628,0.00018694,-0.0000049
 1,-0.00005504,-0.00004637,-0.00006289,0.00001971,0.00002604,0.00175766
 ,0.00394918,-0.00191991,0.00044420,0.00095728,0.00056676,0.00011655,-0
 .00129665,-0.00011317,0.00065569,-0.00051194,-0.00083014,-0.00093318,0
 .00147049,0.00085810,-0.01739882,-0.02879596,-0.00170276,0.01654482,0.
 02211839,0.00343089||0.00000240,-0.00000300,-0.00000003,-0.00000055,0.
 00000063,-0.00000076,-0.00000449,-0.00000671,-0.00000192,0.00000032,-0
 .00000127,-0.00000033,-0.00000102,0.00000417,0.00000565,0.00000070,-0.
 00000133,0.00000002,0.00000022,0.00000161,0.00000022,-0.00000045,0.000
 00104,0.00000005,-0.00000107,-0.00000089,-0.00000164,0.00000184,-0.000
 00166,-0.00000156,0.00000706,-0.00000268,-0.00000402,-0.00001079,0.000
 00841,-0.00000449,0.00000313,-0.00000669,-0.00000086,0.00000429,-0.000
 00626,0.00000355,-0.00000076,-0.00000096,-0.00000044,-0.00000042,0.000
 00151,-0.00000117,-0.00000140,0.00000047,-0.00000034,-0.00000089,0.000
 00022,0.00000165,-0.00000129,-0.00000373,0.00000255,0.00000031,0.00000
 006,0.00000031,0.00000095,0.00000207,0.00000005,0.00000188,0.00000203,
 -0.00000178,-0.00000052,-0.00000166,0.00000088,0.00000393,0.00000191,-
 0.00000144,-0.00000327,0.00000115,0.00000208,-0.00000235,0.00000515,0.
 00000036,0.00000235,0.00000136,-0.00000056,-0.00000168,0.00000051,0.00
 000291,0.00000080,-0.00000044,-0.00000235,0.00000156,0.00000427,-0.000
 00103,-0.00000101,0.00000239,-0.00000103,-0.00000205,-0.00000079,0.000
 00089,0.00000331,0.00000021,-0.00000220,0.00000093,-0.00000091,-0.0000
 0206,0.00000026,0.00000158,0.00000084,0.00000050,-0.00000001,-0.000000
 93,0.00000009,-0.00000007,0.00000197,-0.00000089,-0.00000016,0.0000013
 0,0.00000138,0.00000062,0.00000016,-0.00000054,-0.00000037,0.00000059,
 -0.00000104,0.00000013,0.00000006,-0.00000130,0.00000071,-0.00000009,-
 0.00000136,-0.00000289,0.00000349,0.00000142,0.00000090,0.00000144,-0.
 00000048,-0.00000063,0.00000004|||@


 SIC AS THE CAWSE OF EWERY THING IS, SIC WILBE THE EFFECT.
 -- PROVERBS AND REASONS OF THE YEAR 1585
           AS REPRINTED IN PAISLEY MAGAZINE 1828.
 Job cpu time:       0 days  3 hours  9 minutes 17.0 seconds.
 Elapsed time:       0 days  3 hours  9 minutes 16.0 seconds.
 File lengths (MBytes):  RWF=   1108 Int=      0 D2E=      0 Chk=     22 Scr=      1
 Normal termination of Gaussian 16 at Tue Sep 15 00:01:21 2020.
