 Entering Link 1 = C:\G16W\l1.exe PID=     16148.
  
 Copyright (c) 1988-2017, Gaussian, Inc.  All Rights Reserved.
  
 This is part of the Gaussian(R) 16 program.  It is based on
 the Gaussian(R) 09 system (copyright 2009, Gaussian, Inc.),
 the Gaussian(R) 03 system (copyright 2003, Gaussian, Inc.),
 the Gaussian(R) 98 system (copyright 1998, Gaussian, Inc.),
 the Gaussian(R) 94 system (copyright 1995, Gaussian, Inc.),
 the Gaussian 92(TM) system (copyright 1992, Gaussian, Inc.),
 the Gaussian 90(TM) system (copyright 1990, Gaussian, Inc.),
 the Gaussian 88(TM) system (copyright 1988, Gaussian, Inc.),
 the Gaussian 86(TM) system (copyright 1986, Carnegie Mellon
 University), and the Gaussian 82(TM) system (copyright 1983,
 Carnegie Mellon University). Gaussian is a federally registered
 trademark of Gaussian, Inc.
  
 This software contains proprietary and confidential information,
 including trade secrets, belonging to Gaussian, Inc.
  
 This software is provided under written license and may be
 used, copied, transmitted, or stored only in accord with that
 written license.
  
 The following legend is applicable only to US Government
 contracts under FAR:
  
                    RESTRICTED RIGHTS LEGEND
  
 Use, reproduction and disclosure by the US Government is
 subject to restrictions as set forth in subparagraphs (a)
 and (c) of the Commercial Computer Software - Restricted
 Rights clause in FAR 52.227-19.
  
 Gaussian, Inc.
 340 Quinnipiac St., Bldg. 40, Wallingford CT 06492
  
  
 ---------------------------------------------------------------
 Warning -- This program may not be used in any manner that
 competes with the business of Gaussian, Inc. or will provide
 assistance to any competitor of Gaussian, Inc.  The licensee
 of this program is prohibited from giving any competitor of
 Gaussian, Inc. access to this program.  By using this program,
 the user acknowledges that Gaussian, Inc. is engaged in the
 business of creating and licensing software in the field of
 computational chemistry and represents and warrants to the
 licensee that it is not a competitor of Gaussian, Inc. and that
 it will not use this program in any manner prohibited above.
 ---------------------------------------------------------------
  

 Cite this work as:
 Gaussian 16, Revision B.01,
 M. J. Frisch, G. W. Trucks, H. B. Schlegel, G. E. Scuseria, 
 M. A. Robb, J. R. Cheeseman, G. Scalmani, V. Barone, 
 G. A. Petersson, H. Nakatsuji, X. Li, M. Caricato, A. V. Marenich, 
 J. Bloino, B. G. Janesko, R. Gomperts, B. Mennucci, H. P. Hratchian, 
 J. V. Ortiz, A. F. Izmaylov, J. L. Sonnenberg, D. Williams-Young, 
 F. Ding, F. Lipparini, F. Egidi, J. Goings, B. Peng, A. Petrone, 
 T. Henderson, D. Ranasinghe, V. G. Zakrzewski, J. Gao, N. Rega, 
 G. Zheng, W. Liang, M. Hada, M. Ehara, K. Toyota, R. Fukuda, 
 J. Hasegawa, M. Ishida, T. Nakajima, Y. Honda, O. Kitao, H. Nakai, 
 T. Vreven, K. Throssell, J. A. Montgomery, Jr., J. E. Peralta, 
 F. Ogliaro, M. J. Bearpark, J. J. Heyd, E. N. Brothers, K. N. Kudin, 
 V. N. Staroverov, T. A. Keith, R. Kobayashi, J. Normand, 
 K. Raghavachari, A. P. Rendell, J. C. Burant, S. S. Iyengar, 
 J. Tomasi, M. Cossi, J. M. Millam, M. Klene, C. Adamo, R. Cammi, 
 J. W. Ochterski, R. L. Martin, K. Morokuma, O. Farkas, 
 J. B. Foresman, and D. J. Fox, Gaussian, Inc., Wallingford CT, 2016.
 
 ******************************************
 Gaussian 16:  EM64W-G16RevB.01 16-Dec-2017
                15-Sep-2020 
 ******************************************
 %nprocshared = 6
 Will use up to    6 processors via shared memory.
 %chk=C:\Users\no83wec\Documents\BA_projektmodul\2020_09_15\adenosineMonophosphat
 e\adenosineMonophosphate.chk
 -------------------------------------------------------------------
 # opt freq(raman, printderivatives) b3lyp/6-31+G* geom=connectivity
 -------------------------------------------------------------------
 1/18=20,19=15,26=3,38=1,57=2/1,3;
 2/9=110,12=2,17=6,18=5,40=1/2;
 3/5=1,6=6,7=11,11=2,25=1,30=1,71=1,74=-5/1,2,3;
 4//1;
 5/5=2,38=5/2;
 6/7=2,8=2,9=2,10=2,28=1/1;
 7//1,2,3,16;
 1/18=20,19=15,26=3/3(2);
 2/9=110/2;
 99//99;
 2/9=110/2;
 3/5=1,6=6,7=11,11=2,25=1,30=1,71=1,74=-5/1,2,3;
 4/5=5,16=3,69=1/1;
 5/5=2,38=5/2;
 7//1,2,3,16;
 1/18=20,19=15,26=3/3(-5);
 2/9=110/2;
 6/7=2,8=2,9=2,10=2,19=2,28=1/1;
 99/9=1/99;
 ---------------------------------------------------
 Optmierung und Ramantensor für Adenosinmonophosphat
 ---------------------------------------------------
 Symbolic Z-matrix:
 Charge =  0 Multiplicity = 1
 P                    -0.03249  -0.04056  -1.9763 
 O                    -0.01656  -1.37927  -2.66332 
 O                     1.56501   0.5575   -1.85614 
 C                     2.36086  -0.35765  -1.0985 
 H                     2.37219  -1.30955  -1.58702 
 H                     1.94543  -0.46473  -0.11827 
 C                     3.79954   0.18095  -0.99029 
 H                     4.38482  -0.51276  -0.42361 
 O                     4.32332   0.39407  -2.3456 
 C                     4.11889   1.8302   -2.58505 
 H                     5.03543   2.3428   -2.37986 
 N                     3.70721   2.12746  -3.96456 
 C                     2.42866   2.17736  -4.41218 
 H                     1.56511   2.00394  -3.80463 
 N                     2.39352   2.46697  -5.69083 
 C                     3.80489   2.60545  -6.04704 
 C                     4.39555   2.90546  -7.25953 
 N                     3.66947   3.12666  -8.36103 
 H                     4.12462   3.34184  -9.22506 
 H                     2.67154   3.07684  -8.32044 
 N                     5.7382    2.96328  -7.27368 
 C                     6.45249   2.73345  -6.13636 
 H                     7.52072   2.78466  -6.17047 
 N                     5.8597    2.4506   -4.99961 
 C                     4.52959   2.39164  -4.97824 
 C                     3.73474   1.56663  -0.36894 
 H                     3.17411   1.61008   0.54139 
 C                     3.1002    2.2607   -1.539 
 H                     2.12781   1.86194  -1.73983 
 O                     2.96393   3.67774  -1.40354 
 H                     2.61531   4.0451   -2.21908 
 O                     5.03481   2.09692  -0.09785 
 O                    -0.98417   1.05378  -2.88228 
 H                    -1.88101   0.71803  -2.94974 
 H                     4.95386   3.00578   0.20052 
 O                    -0.6964   -0.21169  -0.40976 
 H                    -1.59323  -0.54744  -0.47722 
 

 GradGradGradGradGradGradGradGradGradGradGradGradGradGradGradGradGradGrad
 Berny optimization.
 Initialization pass.
                           ----------------------------
                           !    Initial Parameters    !
                           ! (Angstroms and Degrees)  !
 --------------------------                            --------------------------
 ! Name  Definition              Value          Derivative Info.                !
 --------------------------------------------------------------------------------
 ! R1    R(1,2)                  1.5048         estimate D2E/DX2                !
 ! R2    R(1,3)                  1.71           estimate D2E/DX2                !
 ! R3    R(1,33)                 1.71           estimate D2E/DX2                !
 ! R4    R(1,36)                 1.71           estimate D2E/DX2                !
 ! R5    R(3,4)                  1.43           estimate D2E/DX2                !
 ! R6    R(4,5)                  1.07           estimate D2E/DX2                !
 ! R7    R(4,6)                  1.07           estimate D2E/DX2                !
 ! R8    R(4,7)                  1.54           estimate D2E/DX2                !
 ! R9    R(7,8)                  1.07           estimate D2E/DX2                !
 ! R10   R(7,9)                  1.4685         estimate D2E/DX2                !
 ! R11   R(7,26)                 1.52           estimate D2E/DX2                !
 ! R12   R(9,10)                 1.4702         estimate D2E/DX2                !
 ! R13   R(10,11)                1.07           estimate D2E/DX2                !
 ! R14   R(10,12)                1.47           estimate D2E/DX2                !
 ! R15   R(10,28)                1.5223         estimate D2E/DX2                !
 ! R16   R(12,13)                1.3556         estimate D2E/DX2                !
 ! R17   R(12,25)                1.3318         estimate D2E/DX2                !
 ! R18   R(13,14)                1.07           estimate D2E/DX2                !
 ! R19   R(13,15)                1.3115         estimate D2E/DX2                !
 ! R20   R(15,16)                1.4622         estimate D2E/DX2                !
 ! R21   R(16,17)                1.3817         estimate D2E/DX2                !
 ! R22   R(16,25)                1.3089         estimate D2E/DX2                !
 ! R23   R(17,18)                1.3377         estimate D2E/DX2                !
 ! R24   R(17,21)                1.344          estimate D2E/DX2                !
 ! R25   R(18,19)                1.0            estimate D2E/DX2                !
 ! R26   R(18,20)                1.0            estimate D2E/DX2                !
 ! R27   R(21,22)                1.3625         estimate D2E/DX2                !
 ! R28   R(22,23)                1.07           estimate D2E/DX2                !
 ! R29   R(22,24)                1.3129         estimate D2E/DX2                !
 ! R30   R(24,25)                1.3316         estimate D2E/DX2                !
 ! R31   R(26,27)                1.07           estimate D2E/DX2                !
 ! R32   R(26,28)                1.5011         estimate D2E/DX2                !
 ! R33   R(26,32)                1.43           estimate D2E/DX2                !
 ! R34   R(28,29)                1.07           estimate D2E/DX2                !
 ! R35   R(28,30)                1.43           estimate D2E/DX2                !
 ! R36   R(30,31)                0.96           estimate D2E/DX2                !
 ! R37   R(32,35)                0.96           estimate D2E/DX2                !
 ! R38   R(33,34)                0.96           estimate D2E/DX2                !
 ! R39   R(36,37)                0.96           estimate D2E/DX2                !
 ! A1    A(2,1,3)              109.4712         estimate D2E/DX2                !
 ! A2    A(2,1,33)             109.4712         estimate D2E/DX2                !
 ! A3    A(2,1,36)             109.4712         estimate D2E/DX2                !
 ! A4    A(3,1,33)             109.4712         estimate D2E/DX2                !
 ! A5    A(3,1,36)             109.4712         estimate D2E/DX2                !
 ! A6    A(33,1,36)            109.4712         estimate D2E/DX2                !
 ! A7    A(1,3,4)              109.4712         estimate D2E/DX2                !
 ! A8    A(3,4,5)              109.4712         estimate D2E/DX2                !
 ! A9    A(3,4,6)              109.4712         estimate D2E/DX2                !
 ! A10   A(3,4,7)              109.4712         estimate D2E/DX2                !
 ! A11   A(5,4,6)              109.4712         estimate D2E/DX2                !
 ! A12   A(5,4,7)              109.4712         estimate D2E/DX2                !
 ! A13   A(6,4,7)              109.4712         estimate D2E/DX2                !
 ! A14   A(4,7,8)              108.7515         estimate D2E/DX2                !
 ! A15   A(4,7,9)              108.6088         estimate D2E/DX2                !
 ! A16   A(4,7,26)             107.9226         estimate D2E/DX2                !
 ! A17   A(8,7,9)              112.8153         estimate D2E/DX2                !
 ! A18   A(8,7,26)             113.445          estimate D2E/DX2                !
 ! A19   A(9,7,26)             105.0801         estimate D2E/DX2                !
 ! A20   A(7,9,10)             104.0325         estimate D2E/DX2                !
 ! A21   A(9,10,11)            108.5186         estimate D2E/DX2                !
 ! A22   A(9,10,12)            112.9116         estimate D2E/DX2                !
 ! A23   A(9,10,28)            104.9145         estimate D2E/DX2                !
 ! A24   A(11,10,12)           108.8429         estimate D2E/DX2                !
 ! A25   A(11,10,28)           107.816          estimate D2E/DX2                !
 ! A26   A(12,10,28)           113.5948         estimate D2E/DX2                !
 ! A27   A(10,12,13)           125.5539         estimate D2E/DX2                !
 ! A28   A(10,12,25)           125.5539         estimate D2E/DX2                !
 ! A29   A(13,12,25)           108.8921         estimate D2E/DX2                !
 ! A30   A(12,13,14)           124.593          estimate D2E/DX2                !
 ! A31   A(12,13,15)           110.814          estimate D2E/DX2                !
 ! A32   A(14,13,15)           124.593          estimate D2E/DX2                !
 ! A33   A(13,15,16)           103.4477         estimate D2E/DX2                !
 ! A34   A(15,16,17)           130.3147         estimate D2E/DX2                !
 ! A35   A(15,16,25)           108.6647         estimate D2E/DX2                !
 ! A36   A(17,16,25)           121.0206         estimate D2E/DX2                !
 ! A37   A(16,17,18)           121.7671         estimate D2E/DX2                !
 ! A38   A(16,17,21)           116.4659         estimate D2E/DX2                !
 ! A39   A(18,17,21)           121.7671         estimate D2E/DX2                !
 ! A40   A(17,18,19)           120.0            estimate D2E/DX2                !
 ! A41   A(17,18,20)           120.0            estimate D2E/DX2                !
 ! A42   A(19,18,20)           120.0            estimate D2E/DX2                !
 ! A43   A(17,21,22)           120.5091         estimate D2E/DX2                !
 ! A44   A(21,22,23)           119.2545         estimate D2E/DX2                !
 ! A45   A(21,22,24)           121.4909         estimate D2E/DX2                !
 ! A46   A(23,22,24)           119.2545         estimate D2E/DX2                !
 ! A47   A(22,24,25)           118.3244         estimate D2E/DX2                !
 ! A48   A(12,25,16)           108.1815         estimate D2E/DX2                !
 ! A49   A(12,25,24)           129.6294         estimate D2E/DX2                !
 ! A50   A(16,25,24)           122.1891         estimate D2E/DX2                !
 ! A51   A(7,26,27)            114.0255         estimate D2E/DX2                !
 ! A52   A(7,26,28)             96.9446         estimate D2E/DX2                !
 ! A53   A(7,26,32)            112.1358         estimate D2E/DX2                !
 ! A54   A(27,26,28)           115.017          estimate D2E/DX2                !
 ! A55   A(27,26,32)           107.4576         estimate D2E/DX2                !
 ! A56   A(28,26,32)           111.1368         estimate D2E/DX2                !
 ! A57   A(10,28,26)            97.0063         estimate D2E/DX2                !
 ! A58   A(10,28,29)           111.9492         estimate D2E/DX2                !
 ! A59   A(10,28,30)           114.1486         estimate D2E/DX2                !
 ! A60   A(26,28,29)           110.9847         estimate D2E/DX2                !
 ! A61   A(26,28,30)           115.1267         estimate D2E/DX2                !
 ! A62   A(29,28,30)           107.4865         estimate D2E/DX2                !
 ! A63   A(28,30,31)           109.4712         estimate D2E/DX2                !
 ! A64   A(26,32,35)           109.4712         estimate D2E/DX2                !
 ! A65   A(1,33,34)            109.4712         estimate D2E/DX2                !
 ! A66   A(1,36,37)            109.4712         estimate D2E/DX2                !
 ! D1    D(2,1,3,4)            -60.0            estimate D2E/DX2                !
 ! D2    D(33,1,3,4)           180.0            estimate D2E/DX2                !
 ! D3    D(36,1,3,4)            60.0            estimate D2E/DX2                !
 ! D4    D(2,1,33,34)           60.0            estimate D2E/DX2                !
 ! D5    D(3,1,33,34)          180.0            estimate D2E/DX2                !
 ! D6    D(36,1,33,34)         -60.0            estimate D2E/DX2                !
 ! D7    D(2,1,36,37)          -60.0            estimate D2E/DX2                !
 ! D8    D(3,1,36,37)         -180.0            estimate D2E/DX2                !
 ! D9    D(33,1,36,37)          60.0            estimate D2E/DX2                !
 ! D10   D(1,3,4,5)             60.0            estimate D2E/DX2                !
 ! D11   D(1,3,4,6)            -60.0            estimate D2E/DX2                !
 ! D12   D(1,3,4,7)           -180.0            estimate D2E/DX2                !
 ! D13   D(3,4,7,8)           -179.8857         estimate D2E/DX2                !
 ! D14   D(3,4,7,9)            -56.7657         estimate D2E/DX2                !
 ! D15   D(3,4,7,26)            56.6514         estimate D2E/DX2                !
 ! D16   D(5,4,7,8)            -59.8857         estimate D2E/DX2                !
 ! D17   D(5,4,7,9)             63.2343         estimate D2E/DX2                !
 ! D18   D(5,4,7,26)           176.6514         estimate D2E/DX2                !
 ! D19   D(6,4,7,8)             60.1143         estimate D2E/DX2                !
 ! D20   D(6,4,7,9)           -176.7657         estimate D2E/DX2                !
 ! D21   D(6,4,7,26)           -63.3486         estimate D2E/DX2                !
 ! D22   D(4,7,9,10)            97.6824         estimate D2E/DX2                !
 ! D23   D(8,7,9,10)          -141.6782         estimate D2E/DX2                !
 ! D24   D(26,7,9,10)          -17.5959         estimate D2E/DX2                !
 ! D25   D(4,7,26,27)           51.5176         estimate D2E/DX2                !
 ! D26   D(4,7,26,28)          -69.8627         estimate D2E/DX2                !
 ! D27   D(4,7,26,32)          173.924          estimate D2E/DX2                !
 ! D28   D(8,7,26,27)          -69.0479         estimate D2E/DX2                !
 ! D29   D(8,7,26,28)          169.5718         estimate D2E/DX2                !
 ! D30   D(8,7,26,32)           53.3585         estimate D2E/DX2                !
 ! D31   D(9,7,26,27)          167.2703         estimate D2E/DX2                !
 ! D32   D(9,7,26,28)           45.89           estimate D2E/DX2                !
 ! D33   D(9,7,26,32)          -70.3233         estimate D2E/DX2                !
 ! D34   D(7,9,10,11)           97.5609         estimate D2E/DX2                !
 ! D35   D(7,9,10,12)         -141.6849         estimate D2E/DX2                !
 ! D36   D(7,9,10,28)          -17.4717         estimate D2E/DX2                !
 ! D37   D(9,10,12,13)          89.58           estimate D2E/DX2                !
 ! D38   D(9,10,12,25)         -90.42           estimate D2E/DX2                !
 ! D39   D(11,10,12,13)       -149.8508         estimate D2E/DX2                !
 ! D40   D(11,10,12,25)         30.1492         estimate D2E/DX2                !
 ! D41   D(28,10,12,13)        -29.7292         estimate D2E/DX2                !
 ! D42   D(28,10,12,25)        150.2708         estimate D2E/DX2                !
 ! D43   D(9,10,28,26)          45.7908         estimate D2E/DX2                !
 ! D44   D(9,10,28,29)         -70.2197         estimate D2E/DX2                !
 ! D45   D(9,10,28,30)         167.388          estimate D2E/DX2                !
 ! D46   D(11,10,28,26)        -69.7301         estimate D2E/DX2                !
 ! D47   D(11,10,28,29)        174.2594         estimate D2E/DX2                !
 ! D48   D(11,10,28,30)         51.8671         estimate D2E/DX2                !
 ! D49   D(12,10,28,26)        169.5687         estimate D2E/DX2                !
 ! D50   D(12,10,28,29)         53.5582         estimate D2E/DX2                !
 ! D51   D(12,10,28,30)        -68.8341         estimate D2E/DX2                !
 ! D52   D(10,12,13,14)         -0.0003         estimate D2E/DX2                !
 ! D53   D(10,12,13,15)        180.0            estimate D2E/DX2                !
 ! D54   D(25,12,13,14)        179.9998         estimate D2E/DX2                !
 ! D55   D(25,12,13,15)          0.0            estimate D2E/DX2                !
 ! D56   D(10,12,25,16)       -180.0            estimate D2E/DX2                !
 ! D57   D(10,12,25,24)          0.0            estimate D2E/DX2                !
 ! D58   D(13,12,25,16)          0.0            estimate D2E/DX2                !
 ! D59   D(13,12,25,24)        180.0            estimate D2E/DX2                !
 ! D60   D(12,13,15,16)          0.0            estimate D2E/DX2                !
 ! D61   D(14,13,15,16)       -179.9998         estimate D2E/DX2                !
 ! D62   D(13,15,16,17)       -179.9999         estimate D2E/DX2                !
 ! D63   D(13,15,16,25)          0.0            estimate D2E/DX2                !
 ! D64   D(15,16,17,18)          0.0            estimate D2E/DX2                !
 ! D65   D(15,16,17,21)        179.9999         estimate D2E/DX2                !
 ! D66   D(25,16,17,18)       -179.9998         estimate D2E/DX2                !
 ! D67   D(25,16,17,21)          0.0001         estimate D2E/DX2                !
 ! D68   D(15,16,25,12)          0.0            estimate D2E/DX2                !
 ! D69   D(15,16,25,24)       -179.9999         estimate D2E/DX2                !
 ! D70   D(17,16,25,12)        179.9999         estimate D2E/DX2                !
 ! D71   D(17,16,25,24)         -0.0001         estimate D2E/DX2                !
 ! D72   D(16,17,18,19)       -180.0            estimate D2E/DX2                !
 ! D73   D(16,17,18,20)          0.0001         estimate D2E/DX2                !
 ! D74   D(21,17,18,19)          0.0001         estimate D2E/DX2                !
 ! D75   D(21,17,18,20)       -179.9998         estimate D2E/DX2                !
 ! D76   D(16,17,21,22)         -0.0001         estimate D2E/DX2                !
 ! D77   D(18,17,21,22)        179.9998         estimate D2E/DX2                !
 ! D78   D(17,21,22,23)        180.0            estimate D2E/DX2                !
 ! D79   D(17,21,22,24)          0.0            estimate D2E/DX2                !
 ! D80   D(21,22,24,25)          0.0            estimate D2E/DX2                !
 ! D81   D(23,22,24,25)       -180.0            estimate D2E/DX2                !
 ! D82   D(22,24,25,12)       -179.9999         estimate D2E/DX2                !
 ! D83   D(22,24,25,16)          0.0001         estimate D2E/DX2                !
 ! D84   D(7,26,28,10)         -53.7927         estimate D2E/DX2                !
 ! D85   D(7,26,28,29)          62.9822         estimate D2E/DX2                !
 ! D86   D(7,26,28,30)        -174.65           estimate D2E/DX2                !
 ! D87   D(27,26,28,10)       -174.4203         estimate D2E/DX2                !
 ! D88   D(27,26,28,29)        -57.6455         estimate D2E/DX2                !
 ! D89   D(27,26,28,30)         64.7223         estimate D2E/DX2                !
 ! D90   D(32,26,28,10)         63.2116         estimate D2E/DX2                !
 ! D91   D(32,26,28,29)        179.9865         estimate D2E/DX2                !
 ! D92   D(32,26,28,30)        -57.6457         estimate D2E/DX2                !
 ! D93   D(7,26,32,35)         173.742          estimate D2E/DX2                !
 ! D94   D(27,26,32,35)        -60.1938         estimate D2E/DX2                !
 ! D95   D(28,26,32,35)         66.4518         estimate D2E/DX2                !
 ! D96   D(10,28,30,31)         64.6094         estimate D2E/DX2                !
 ! D97   D(26,28,30,31)        175.582          estimate D2E/DX2                !
 ! D98   D(29,28,30,31)        -60.1914         estimate D2E/DX2                !
 --------------------------------------------------------------------------------
 Trust Radius=3.00D-01 FncErr=1.00D-07 GrdErr=1.00D-06 EigMax=2.50D+02 EigMin=1.00D-04
 Number of steps in this run=    213 maximum allowed number of steps=    222.
 GradGradGradGradGradGradGradGradGradGradGradGradGradGradGradGradGradGrad

                          Input orientation:                          
 ---------------------------------------------------------------------
 Center     Atomic      Atomic             Coordinates (Angstroms)
 Number     Number       Type             X           Y           Z
 ---------------------------------------------------------------------
      1         15           0       -0.032486   -0.040557   -1.976298
      2          8           0       -0.016557   -1.379274   -2.663324
      3          8           0        1.565008    0.557501   -1.856138
      4          6           0        2.360864   -0.357648   -1.098500
      5          1           0        2.372191   -1.309554   -1.587016
      6          1           0        1.945435   -0.464729   -0.118269
      7          6           0        3.799542    0.180954   -0.990285
      8          1           0        4.384815   -0.512758   -0.423611
      9          8           0        4.323325    0.394074   -2.345595
     10          6           0        4.118895    1.830200   -2.585049
     11          1           0        5.035432    2.342797   -2.379859
     12          7           0        3.707214    2.127463   -3.964561
     13          6           0        2.428659    2.177355   -4.412178
     14          1           0        1.565115    2.003943   -3.804626
     15          7           0        2.393516    2.466974   -5.690831
     16          6           0        3.804887    2.605450   -6.047040
     17          6           0        4.395555    2.905460   -7.259530
     18          7           0        3.669470    3.126661   -8.361034
     19          1           0        4.124618    3.341842   -9.225059
     20          1           0        2.671537    3.076841   -8.320441
     21          7           0        5.738196    2.963283   -7.273683
     22          6           0        6.452493    2.733454   -6.136364
     23          1           0        7.520723    2.784659   -6.170472
     24          7           0        5.859698    2.450596   -4.999610
     25          6           0        4.529593    2.391639   -4.978236
     26          6           0        3.734739    1.566625   -0.368944
     27          1           0        3.174113    1.610077    0.541392
     28          6           0        3.100203    2.260705   -1.539003
     29          1           0        2.127808    1.861935   -1.739826
     30          8           0        2.963935    3.677738   -1.403543
     31          1           0        2.615307    4.045101   -2.219081
     32          8           0        5.034813    2.096923   -0.097853
     33          8           0       -0.984174    1.053783   -2.882284
     34          1           0       -1.881013    0.718031   -2.949742
     35          1           0        4.953856    3.005781    0.200515
     36          8           0       -0.696395   -0.211685   -0.409760
     37          1           0       -1.593234   -0.547437   -0.477219
 ---------------------------------------------------------------------
                    Distance matrix (angstroms):
                    1          2          3          4          5
     1  P    0.000000
     2  O    1.504800   0.000000
     3  O    1.710000   2.627545   0.000000
     4  C    2.568891   3.023991   1.430000   0.000000
     5  H    2.746701   2.620957   2.051796   1.070000   0.000000
     6  H    2.746701   3.341124   2.051796   1.070000   1.747303
     7  C    3.963046   4.449268   2.425826   1.540000   2.148263
     8  H    4.705993   5.013905   3.338997   2.139139   2.457448
     9  O    4.392992   4.698966   2.806170   2.443683   2.699021
    10  C    4.593938   5.235342   2.945065   3.176032   3.728954
    11  H    5.614894   6.281461   3.937691   4.010935   4.589240
    12  N    4.758031   5.277962   3.391058   4.025263   4.387265
    13  C    4.112163   4.656950   3.146929   4.172685   4.488125
    14  H    3.174128   3.905177   2.426684   3.678783   4.067976
    15  N    5.096170   5.455993   4.363184   5.391573   5.577088
    16  C    6.188516   6.475414   5.174439   5.945856   6.105055
    17  C    7.496606   7.677941   6.536172   7.262653   7.351038
    18  N    8.031227   8.145805   7.303631   8.160715   8.200626
    19  H    9.014803   9.082655   8.282822   9.101539   9.112968
    20  H    7.568228   7.686728   7.025575   8.003041   8.041710
    21  N    8.389643   8.557475   7.249350   7.782534   7.869263
    22  C    8.188788   8.415767   6.851468   7.188631   7.327438
    23  H    9.089769   9.297795   7.684025   7.888164   8.017358
    24  N    7.075599   7.393004   5.648857   5.945313   6.160133
    25  C    5.978276   6.343980   4.679778   5.226311   5.463844
    26  C    4.399842   5.292894   2.817412   2.474392   3.407733
    27  H    4.398367   5.420959   3.073318   2.687482   3.701005
    28  C    3.911621   4.922168   2.314801   2.756164   3.644044
    29  H    2.888298   3.994570   1.425419   2.322104   3.184559
    30  O    4.809605   6.003644   3.449306   4.091587   5.025624
    31  H    4.874664   6.045486   3.660356   4.550236   5.397309
    32  O    5.811618   6.646949   4.183412   3.765133   4.572882
    33  O    1.710000   2.627545   2.792418   4.045158   4.304448
    34  H    2.222634   2.820802   3.618950   4.751600   4.904882
    35  H    6.235567   7.220477   4.659205   4.441138   5.336888
    36  O    1.710000   2.627545   2.792418   3.137276   3.465179
    37  H    2.222634   2.820802   3.618950   4.007106   4.187728
                    6          7          8          9         10
     6  H    0.000000
     7  C    2.148263   0.000000
     8  H    2.458885   1.070000   0.000000
     9  O    3.369404   1.468548   2.126064   0.000000
    10  C    4.009442   2.316305   3.198746   1.470234   0.000000
    11  H    4.748165   2.851649   3.521988   2.075041   1.070000
    12  N    4.961581   3.555803   4.468583   2.450567   1.470000
    13  C    5.064758   4.192171   5.193451   3.322743   2.513129
    14  H    4.452887   4.029450   5.071070   3.511149   2.835374
    15  N    6.312614   5.412756   6.370846   4.383113   3.609473
    16  C    6.930648   5.607939   6.456198   4.342771   3.561601
    17  C    8.267942   6.861603   7.642913   5.518970   4.804529
    18  N    9.154974   7.938643   8.761266   6.639282   5.936734
    19  H   10.108038   8.826573   9.612030   7.487045   6.809907
    20  H    8.963569   7.961768   8.841973   6.754586   6.045138
    21  N    8.794103   7.140085   7.799871   5.734871   5.088153
    22  C    8.170643   6.327364   6.888304   4.937204   4.344352
    23  H    8.847119   6.889180   7.330299   5.528827   5.033755
    24  N    6.902758   5.046802   5.647700   3.692360   3.040625
    25  C    6.201290   4.617776   5.403804   3.311135   2.492235
    26  C    2.718611   1.519983   2.179316   2.372438   2.264546
    27  H    2.499924   2.186227   2.627443   3.336772   3.273484
    28  C    3.283285   2.261754   3.253678   2.372958   1.522261
    29  H    2.841843   2.486404   3.530676   2.709588   2.163292
    30  O    4.455255   3.618911   4.532044   3.676663   2.478565
    31  H    5.020030   4.224214   5.208546   4.032782   2.701943
    32  O    4.013320   2.448115   2.709068   2.908309   2.663868
    33  O    4.304447   5.217800   6.109433   5.375202   5.170346
    34  H    4.904882   6.032962   6.867080   6.242095   6.113003
    35  H    4.603983   3.275682   3.618488   3.701522   3.136641
    36  O    2.669881   4.550234   5.090141   5.414055   5.664644
    37  H    3.557789   5.465879   5.978390   6.275583   6.536399
                   11         12         13         14         15
    11  H    0.000000
    12  N    2.078897   0.000000
    13  C    3.309526   1.355564   0.000000
    14  H    3.766681   2.151610   1.070000   0.000000
    15  N    4.237650   2.195696   1.311513   2.111496   0.000000
    16  C    3.877041   2.138863   2.179460   3.225959   1.462201
    17  C    4.953505   3.454839   3.536414   4.556367   2.580939
    18  N    6.185043   4.508747   4.246676   5.142924   3.032035
    19  H    6.977423   5.414959   5.234131   6.141834   4.031486
    20  H    6.435630   4.576859   4.017784   4.771569   2.713685
    21  N    4.982809   3.971620   4.445101   5.510834   3.733447
    22  C    4.033857   3.552536   4.412857   5.464033   4.092042
    23  H    4.554191   4.454301   5.421211   6.455696   5.159383
    24  N    2.748478   2.410172   3.491671   4.480059   3.534469
    25  C    2.647607   1.331779   2.186382   3.211822   2.253063
    26  C    2.517544   3.639198   4.292620   4.086860   5.561654
    27  H    3.540494   4.566782   5.041365   4.651008   6.339101
    28  C    2.111608   2.503906   2.951789   2.748722   4.216590
    29  H    3.015816   2.741254   2.707668   2.144804   4.005884
    30  O    2.650729   3.084579   3.404344   3.243992   4.491343
    31  H    2.963224   2.813591   2.886691   2.789835   3.820042
    32  O    2.295214   4.088384   5.041023   5.078151   6.196353
    33  O    6.176540   4.932873   3.905178   2.872698   4.614524
    34  H    7.127541   5.851892   4.779290   3.776267   5.370657
    35  H    2.665434   4.435473   5.323519   5.341199   6.446209
    36  O    6.577272   6.123724   5.611847   4.642041   6.679256
    37  H    7.477480   6.885593   6.251722   5.249414   7.222368
                   16         17         18         19         20
    16  C    0.000000
    17  C    1.381674   0.000000
    18  N    2.375830   1.337700   0.000000
    19  H    3.277850   2.031537   1.000000   0.000000
    20  H    2.583611   2.031537   1.000000   1.732051   0.000000
    21  N    2.317408   1.343960   2.342787   2.560236   3.242375
    22  C    2.652203   2.349911   3.584548   3.915249   4.379924
    23  H    3.722202   3.311694   4.443836   4.601574   5.312470
    24  N    2.311566   2.730907   4.068578   4.653948   4.645909
    25  C    1.308914   2.342280   3.566986   4.370628   3.884869
    26  C    5.772769   7.050485   8.143187   9.040696   8.163178
    27  H    6.692988   8.001519   9.044258   9.964237   8.996448
    28  C    4.575787   5.900684   6.900294   7.829032   6.843810
    29  H    4.681613   6.057949   6.914958   7.887083   6.713876
    30  O    4.839326   6.077708   7.014852   7.914299   6.949105
    31  H    4.259222   5.465728   6.299078   7.201133   6.177968
    32  O    6.096240   7.235468   8.438287   9.256574   8.611404
    33  O    5.946298   7.178472   7.481306   8.459655   6.857882
    34  H    6.744262   7.921768   8.117354   9.073675   7.425234
    35  H    6.364931   7.481580   8.658198   9.467947   8.821606
    36  O    7.744464   9.086467   9.665821  10.657354   9.205230
    37  H    8.372773   9.684412  10.166101  11.151010   9.635342
                   21         22         23         24         25
    21  N    0.000000
    22  C    1.362547   0.000000
    23  H    2.103897   1.070000   0.000000
    24  N    2.334312   1.312868   2.059494   0.000000
    25  C    2.656421   2.270604   3.243878   1.331582   0.000000
    26  C    7.323928   6.481575   7.033847   5.171067   4.749528
    27  H    8.335531   7.523442   8.082189   6.214624   5.737112
    28  C    6.351313   5.709384   6.423864   4.430200   3.726744
    29  H    6.698614   6.228322   7.040282   4.989962   4.066504
    30  O    6.531884   5.954940   6.654736   4.777345   4.108986
    31  H    6.039186   5.638220   6.423808   4.560687   3.743176
    32  O    7.262083   6.235271   6.597683   4.983246   4.915307
    33  O    8.253534   8.289412   9.281238   7.298818   6.048512
    34  H    9.043780   9.146792  10.150699   8.192823   6.929042
    35  H    7.515360   6.517371   6.872203   5.307550   5.232269
    36  O    9.929643   9.621561  10.473056   8.434265   7.413449
    37  H   10.595610  10.369373  11.250787   9.218808   8.147781
                   26         27         28         29         30
    26  C    0.000000
    27  H    1.070000   0.000000
    28  C    1.501140   2.181014   0.000000
    29  H    2.132781   2.522329   1.070000   0.000000
    30  O    2.474132   2.846431   1.430000   2.027149   0.000000
    31  H    3.289222   3.723146   1.970203   2.287696   0.960000
    32  O    1.430000   2.026786   2.417944   3.346935   2.914162
    33  O    5.371036   5.415013   4.465781   3.412148   4.965820
    34  H    6.238373   6.207903   5.402087   4.340859   5.884226
    35  H    1.970203   2.287285   2.648979   3.613842   2.642786
    36  O    4.774830   4.382275   4.669268   3.747679   5.432608
    37  H    5.733086   5.331044   5.571481   4.609274   6.283149
                   31         32         33         34         35
    31  H    0.000000
    32  O    3.761518   0.000000
    33  O    4.726952   6.713375   0.000000
    34  H    5.640935   7.606791   0.960000   0.000000
    35  H    3.521853   0.960000   6.969516   7.865962   0.000000
    36  O    5.688694   6.186575   2.792418   2.952829   6.530686
    37  H    6.468176   7.146158   2.952829   2.792419   7.479911
                   36         37
    36  O    0.000000
    37  H    0.960000   0.000000
 Stoichiometry    C10H14N5O7P
 Framework group  C1[X(C10H14N5O7P)]
 Deg. of freedom   105
 Full point group                 C1      NOp   1
 Largest Abelian subgroup         C1      NOp   1
 Largest concise Abelian subgroup C1      NOp   1
                         Standard orientation:                         
 ---------------------------------------------------------------------
 Center     Atomic      Atomic             Coordinates (Angstroms)
 Number     Number       Type             X           Y           Z
 ---------------------------------------------------------------------
      1         15           0        3.181998   -1.541053   -0.156479
      2          8           0        3.173024   -2.170852   -1.523115
      3          8           0        2.130940   -0.192273   -0.143522
      4          6           0        2.570399    0.763808   -1.111863
      5          1           0        2.564017    0.315985   -2.083621
      6          1           0        3.563285    1.083047   -0.872775
      7          6           0        1.623832    1.978500   -1.100193
      8          1           0        1.961698    2.684877   -1.829424
      9          8           0        0.255643    1.508874   -1.353459
     10          6           0       -0.339615    1.405462   -0.013100
     11          1           0       -0.906723    2.292830    0.176283
     12          7           0       -1.221279    0.238324    0.133041
     13          6           0       -0.834271   -0.996060    0.538105
     14          1           0        0.168254   -1.262891    0.800108
     15          7           0       -1.855132   -1.818960    0.565349
     16          6           0       -2.974971   -0.986127    0.129025
     17          6           0       -4.309830   -1.300118   -0.040049
     18          7           0       -4.780220   -2.529013    0.200767
     19          1           0       -5.751571   -2.727179    0.069591
     20          1           0       -4.160510   -3.249509    0.511967
     21          7           0       -5.110645   -0.305538   -0.459255
     22          6           0       -4.604155    0.936862   -0.696841
     23          1           0       -5.259908    1.713934   -1.030079
     24          7           0       -3.329736    1.202077   -0.526139
     25          6           0       -2.530408    0.221365   -0.110941
     26          6           0        1.595308    2.535706    0.313687
     27          1           0        2.564004    2.722962    0.727768
     28          6           0        0.845450    1.397307    0.942322
     29          1           0        1.405112    0.487641    0.877611
     30          8           0        0.491743    1.587483    2.314774
     31          1           0       -0.040953    0.846823    2.613536
     32          8           0        0.850009    3.753205    0.398102
     33          8           0        2.656492   -2.684339    1.001468
     34          1           0        3.246560   -3.441549    0.994194
     35          1           0        0.773701    4.018597    1.317528
     36          8           0        4.768761   -1.030867    0.225614
     37          1           0        5.358829   -1.788077    0.218339
 ---------------------------------------------------------------------
 Rotational constants (GHZ):           0.3862456           0.1589533           0.1271787
 Standard basis: 6-31+G(d) (6D, 7F)
 There are   469 symmetry adapted cartesian basis functions of A   symmetry.
 There are   469 symmetry adapted basis functions of A   symmetry.
   469 basis functions,   816 primitive gaussians,   469 cartesian basis functions
    90 alpha electrons       90 beta electrons
       nuclear repulsion energy      2301.5888979397 Hartrees.
 NAtoms=   37 NActive=   37 NUniq=   37 SFac= 1.00D+00 NAtFMM=   60 NAOKFM=F Big=F
 Integral buffers will be    131072 words long.
 Raffenetti 2 integral format.
 Two-electron integral symmetry is turned on.
 One-electron integrals computed using PRISM.
 NBasis=   469 RedAO= T EigKep=  1.70D-06  NBF=   469
 NBsUse=   469 1.00D-06 EigRej= -1.00D+00 NBFU=   469
 ExpMin= 3.48D-02 ExpMax= 1.94D+04 ExpMxC= 2.91D+03 IAcc=3 IRadAn=         5 AccDes= 0.00D+00
 Harris functional with IExCor=  402 and IRadAn=       5 diagonalized for initial guess.
 HarFok:  IExCor=  402 AccDes= 0.00D+00 IRadAn=         5 IDoV= 1 UseB2=F ITyADJ=14
 ICtDFT=  3500011 ScaDFX=  1.000000  1.000000  1.000000  1.000000
 FoFCou: FMM=F IPFlag=           0 FMFlag=      100000 FMFlg1=           0
         NFxFlg=           0 DoJE=T BraDBF=F KetDBF=T FulRan=T
         wScrn=  0.000000 ICntrl=       500 IOpCl=  0 I1Cent=   200000004 NGrid=           0
         NMat0=    1 NMatS0=      1 NMatT0=    0 NMatD0=    1 NMtDS0=    0 NMtDT0=    0
 Petite list used in FoFCou.
 Requested convergence on RMS density matrix=1.00D-08 within 128 cycles.
 Requested convergence on MAX density matrix=1.00D-06.
 Requested convergence on             energy=1.00D-06.
 No special actions if energy rises.
 SCF Done:  E(RB3LYP) =  -1531.16018943     A.U. after   16 cycles
            NFock= 16  Conv=0.23D-08     -V/T= 2.0075

 **********************************************************************

            Population analysis using the SCF Density.

 **********************************************************************

 Orbital symmetries:
       Occupied  (A) (A) (A) (A) (A) (A) (A) (A) (A) (A) (A) (A)
                 (A) (A) (A) (A) (A) (A) (A) (A) (A) (A) (A) (A)
                 (A) (A) (A) (A) (A) (A) (A) (A) (A) (A) (A) (A)
                 (A) (A) (A) (A) (A) (A) (A) (A) (A) (A) (A) (A)
                 (A) (A) (A) (A) (A) (A) (A) (A) (A) (A) (A) (A)
                 (A) (A) (A) (A) (A) (A) (A) (A) (A) (A) (A) (A)
                 (A) (A) (A) (A) (A) (A) (A) (A) (A) (A) (A) (A)
                 (A) (A) (A) (A) (A) (A)
       Virtual   (A) (A) (A) (A) (A) (A) (A) (A) (A) (A) (A) (A)
                 (A) (A) (A) (A) (A) (A) (A) (A) (A) (A) (A) (A)
                 (A) (A) (A) (A) (A) (A) (A) (A) (A) (A) (A) (A)
                 (A) (A) (A) (A) (A) (A) (A) (A) (A) (A) (A) (A)
                 (A) (A) (A) (A) (A) (A) (A) (A) (A) (A) (A) (A)
                 (A) (A) (A) (A) (A) (A) (A) (A) (A) (A) (A) (A)
                 (A) (A) (A) (A) (A) (A) (A) (A) (A) (A) (A) (A)
                 (A) (A) (A) (A) (A) (A) (A) (A) (A) (A) (A) (A)
                 (A) (A) (A) (A) (A) (A) (A) (A) (A) (A) (A) (A)
                 (A) (A) (A) (A) (A) (A) (A) (A) (A) (A) (A) (A)
                 (A) (A) (A) (A) (A) (A) (A) (A) (A) (A) (A) (A)
                 (A) (A) (A) (A) (A) (A) (A) (A) (A) (A) (A) (A)
                 (A) (A) (A) (A) (A) (A) (A) (A) (A) (A) (A) (A)
                 (A) (A) (A) (A) (A) (A) (A) (A) (A) (A) (A) (A)
                 (A) (A) (A) (A) (A) (A) (A) (A) (A) (A) (A) (A)
                 (A) (A) (A) (A) (A) (A) (A) (A) (A) (A) (A) (A)
                 (A) (A) (A) (A) (A) (A) (A) (A) (A) (A) (A) (A)
                 (A) (A) (A) (A) (A) (A) (A) (A) (A) (A) (A) (A)
                 (A) (A) (A) (A) (A) (A) (A) (A) (A) (A) (A) (A)
                 (A) (A) (A) (A) (A) (A) (A) (A) (A) (A) (A) (A)
                 (A) (A) (A) (A) (A) (A) (A) (A) (A) (A) (A) (A)
                 (A) (A) (A) (A) (A) (A) (A) (A) (A) (A) (A) (A)
                 (A) (A) (A) (A) (A) (A) (A) (A) (A) (A) (A) (A)
                 (A) (A) (A) (A) (A) (A) (A) (A) (A) (A) (A) (A)
                 (A) (A) (A) (A) (A) (A) (A) (A) (A) (A) (A) (A)
                 (A) (A) (A) (A) (A) (A) (A) (A) (A) (A) (A) (A)
                 (A) (A) (A) (A) (A) (A) (A) (A) (A) (A) (A) (A)
                 (A) (A) (A) (A) (A) (A) (A) (A) (A) (A) (A) (A)
                 (A) (A) (A) (A) (A) (A) (A) (A) (A) (A) (A) (A)
                 (A) (A) (A) (A) (A) (A) (A) (A) (A) (A) (A) (A)
                 (A) (A) (A) (A) (A) (A) (A) (A) (A) (A) (A) (A)
                 (A) (A) (A) (A) (A) (A) (A)
 The electronic state is 1-A.
 Alpha  occ. eigenvalues --  -77.31104 -19.25063 -19.24229 -19.24025 -19.18141
 Alpha  occ. eigenvalues --  -19.17623 -19.17315 -19.14741 -14.40547 -14.36460
 Alpha  occ. eigenvalues --  -14.33790 -14.32235 -14.32198 -10.28558 -10.28205
 Alpha  occ. eigenvalues --  -10.27689 -10.27644 -10.26453 -10.26264 -10.25070
 Alpha  occ. eigenvalues --  -10.24992 -10.23487 -10.20648  -6.75154  -4.91591
 Alpha  occ. eigenvalues --   -4.91540  -4.91331  -1.13216  -1.09612  -1.07547
 Alpha  occ. eigenvalues --   -1.07365  -1.05450  -1.04104  -1.03277  -0.98932
 Alpha  occ. eigenvalues --   -0.98593  -0.94291  -0.89198  -0.85698  -0.82400
 Alpha  occ. eigenvalues --   -0.79404  -0.77923  -0.72377  -0.68682  -0.67857
 Alpha  occ. eigenvalues --   -0.65665  -0.64580  -0.62849  -0.60809  -0.59802
 Alpha  occ. eigenvalues --   -0.59348  -0.57945  -0.56220  -0.54804  -0.53494
 Alpha  occ. eigenvalues --   -0.52917  -0.52378  -0.50956  -0.50719  -0.49875
 Alpha  occ. eigenvalues --   -0.49380  -0.47466  -0.46185  -0.46144  -0.45238
 Alpha  occ. eigenvalues --   -0.45059  -0.44711  -0.44153  -0.43199  -0.42677
 Alpha  occ. eigenvalues --   -0.40946  -0.40341  -0.39245  -0.38966  -0.38850
 Alpha  occ. eigenvalues --   -0.37550  -0.36039  -0.35834  -0.33841  -0.32461
 Alpha  occ. eigenvalues --   -0.31752  -0.31351  -0.30201  -0.29006  -0.28688
 Alpha  occ. eigenvalues --   -0.28027  -0.27519  -0.26844  -0.24031  -0.23119
 Alpha virt. eigenvalues --   -0.07756  -0.02861  -0.01817  -0.01118  -0.00773
 Alpha virt. eigenvalues --    0.00078   0.00646   0.00687   0.01708   0.02202
 Alpha virt. eigenvalues --    0.02313   0.03462   0.03770   0.04404   0.04654
 Alpha virt. eigenvalues --    0.04975   0.05511   0.06020   0.06296   0.06704
 Alpha virt. eigenvalues --    0.07135   0.07389   0.07999   0.08526   0.08726
 Alpha virt. eigenvalues --    0.09162   0.09434   0.10231   0.10491   0.10624
 Alpha virt. eigenvalues --    0.10910   0.11471   0.11888   0.12369   0.12374
 Alpha virt. eigenvalues --    0.12667   0.13127   0.13722   0.14037   0.14342
 Alpha virt. eigenvalues --    0.14815   0.15071   0.15461   0.15790   0.16031
 Alpha virt. eigenvalues --    0.16335   0.16972   0.17106   0.17224   0.17772
 Alpha virt. eigenvalues --    0.18036   0.18351   0.18625   0.19246   0.19384
 Alpha virt. eigenvalues --    0.19742   0.19992   0.20255   0.20635   0.20831
 Alpha virt. eigenvalues --    0.21072   0.21298   0.21812   0.22012   0.22434
 Alpha virt. eigenvalues --    0.22864   0.23455   0.23785   0.23990   0.24196
 Alpha virt. eigenvalues --    0.24337   0.24735   0.25409   0.25689   0.25793
 Alpha virt. eigenvalues --    0.25836   0.26090   0.26691   0.26890   0.27501
 Alpha virt. eigenvalues --    0.27763   0.28070   0.28407   0.28652   0.29228
 Alpha virt. eigenvalues --    0.29552   0.29624   0.30064   0.30537   0.30699
 Alpha virt. eigenvalues --    0.31085   0.31384   0.31963   0.32135   0.32802
 Alpha virt. eigenvalues --    0.33053   0.33186   0.33427   0.34212   0.34665
 Alpha virt. eigenvalues --    0.34825   0.35002   0.35357   0.36040   0.36138
 Alpha virt. eigenvalues --    0.36719   0.36997   0.37376   0.37699   0.37891
 Alpha virt. eigenvalues --    0.38334   0.39117   0.39356   0.40136   0.41055
 Alpha virt. eigenvalues --    0.41386   0.41694   0.41965   0.42375   0.43005
 Alpha virt. eigenvalues --    0.43418   0.43953   0.44450   0.45293   0.45838
 Alpha virt. eigenvalues --    0.45980   0.47275   0.48087   0.48288   0.50298
 Alpha virt. eigenvalues --    0.51378   0.52107   0.53826   0.55124   0.56113
 Alpha virt. eigenvalues --    0.59286   0.62494   0.63979   0.65344   0.65960
 Alpha virt. eigenvalues --    0.69102   0.69429   0.71745   0.72233   0.72626
 Alpha virt. eigenvalues --    0.73829   0.74743   0.75587   0.76877   0.78106
 Alpha virt. eigenvalues --    0.78777   0.79531   0.81406   0.82318   0.82630
 Alpha virt. eigenvalues --    0.83402   0.83977   0.84890   0.85756   0.85954
 Alpha virt. eigenvalues --    0.86757   0.89077   0.89282   0.90337   0.90599
 Alpha virt. eigenvalues --    0.92408   0.92802   0.93737   0.94148   0.96156
 Alpha virt. eigenvalues --    0.97115   0.97989   0.98933   0.99944   1.01418
 Alpha virt. eigenvalues --    1.01931   1.02934   1.03528   1.04142   1.04656
 Alpha virt. eigenvalues --    1.04957   1.05198   1.06436   1.07250   1.07942
 Alpha virt. eigenvalues --    1.08338   1.08821   1.09980   1.10766   1.11539
 Alpha virt. eigenvalues --    1.12153   1.13236   1.14363   1.15192   1.16658
 Alpha virt. eigenvalues --    1.17044   1.18103   1.18743   1.19447   1.20114
 Alpha virt. eigenvalues --    1.20796   1.21527   1.21825   1.22205   1.23515
 Alpha virt. eigenvalues --    1.24474   1.25403   1.25974   1.26909   1.28309
 Alpha virt. eigenvalues --    1.29618   1.30540   1.30890   1.31096   1.32000
 Alpha virt. eigenvalues --    1.32120   1.32647   1.33236   1.35051   1.35423
 Alpha virt. eigenvalues --    1.36347   1.37372   1.38326   1.38937   1.40832
 Alpha virt. eigenvalues --    1.41539   1.42335   1.43095   1.44541   1.44622
 Alpha virt. eigenvalues --    1.46615   1.47143   1.47974   1.48523   1.50079
 Alpha virt. eigenvalues --    1.51803   1.53454   1.54114   1.54559   1.56684
 Alpha virt. eigenvalues --    1.57454   1.58573   1.59897   1.62319   1.63533
 Alpha virt. eigenvalues --    1.63997   1.64508   1.66015   1.66925   1.67823
 Alpha virt. eigenvalues --    1.69589   1.71423   1.72054   1.72632   1.74002
 Alpha virt. eigenvalues --    1.74483   1.75203   1.75721   1.76600   1.76958
 Alpha virt. eigenvalues --    1.78785   1.79130   1.80596   1.82664   1.83386
 Alpha virt. eigenvalues --    1.83644   1.84883   1.85570   1.87196   1.87696
 Alpha virt. eigenvalues --    1.88114   1.88636   1.89628   1.90509   1.92167
 Alpha virt. eigenvalues --    1.92757   1.94206   1.96693   1.97893   1.98604
 Alpha virt. eigenvalues --    2.00666   2.01022   2.01834   2.02480   2.04510
 Alpha virt. eigenvalues --    2.04841   2.06359   2.09123   2.09944   2.11416
 Alpha virt. eigenvalues --    2.12185   2.16333   2.16899   2.17565   2.18276
 Alpha virt. eigenvalues --    2.19513   2.20485   2.21676   2.22749   2.26182
 Alpha virt. eigenvalues --    2.26299   2.27879   2.28686   2.30308   2.31095
 Alpha virt. eigenvalues --    2.32374   2.32679   2.32979   2.35409   2.35949
 Alpha virt. eigenvalues --    2.36744   2.37255   2.39001   2.39999   2.40546
 Alpha virt. eigenvalues --    2.44360   2.44749   2.47984   2.49140   2.50105
 Alpha virt. eigenvalues --    2.50598   2.54105   2.55153   2.57366   2.58031
 Alpha virt. eigenvalues --    2.59428   2.61310   2.62663   2.67091   2.67642
 Alpha virt. eigenvalues --    2.69403   2.71833   2.73568   2.75630   2.77046
 Alpha virt. eigenvalues --    2.79301   2.80034   2.82850   2.83671   2.84424
 Alpha virt. eigenvalues --    2.88536   2.89222   2.89894   2.91224   2.94663
 Alpha virt. eigenvalues --    2.98214   2.99530   3.00146   3.03382   3.08386
 Alpha virt. eigenvalues --    3.09815   3.14302   3.20313   3.25903   3.39394
 Alpha virt. eigenvalues --    3.54583   3.59221   4.05405   4.05685   4.10314
 Alpha virt. eigenvalues --    4.20387   4.27157   4.28698   4.32576   4.34945
 Alpha virt. eigenvalues --    4.41159   4.42649   4.44991   4.48098   4.48486
 Alpha virt. eigenvalues --    4.50985   4.56783   4.57885   4.60047   4.64988
 Alpha virt. eigenvalues --    4.70936   4.82171   4.86079   4.92152
          Condensed to atoms (all electrons):
               1          2          3          4          5          6
     1  P   12.997494   0.487118  -0.372514   0.063519  -0.008304  -0.007286
     2  O    0.487118   8.454488  -0.110238  -0.013264   0.004390  -0.004036
     3  O   -0.372514  -0.110238   9.660524  -0.031802  -0.043794  -0.061602
     4  C    0.063519  -0.013264  -0.031802   6.692168   0.381389   0.407697
     5  H   -0.008304   0.004390  -0.043794   0.381389   0.445781  -0.037626
     6  H   -0.007286  -0.004036  -0.061602   0.407697  -0.037626   0.508517
     7  C   -0.097687   0.030982  -0.286255  -0.654464  -0.015416  -0.051276
     8  H    0.000923  -0.000030   0.015553  -0.014856  -0.003735   0.001461
     9  O   -0.005392  -0.003543   0.053283   0.069373  -0.008796   0.009595
    10  C   -0.007621  -0.013271   0.260661  -0.630068   0.028698  -0.016052
    11  H   -0.000296  -0.000009   0.001793   0.003897  -0.000025   0.000033
    12  N   -0.001121  -0.000344  -0.041010   0.019426   0.000759  -0.001537
    13  C   -0.059412   0.009307   0.075175  -0.072114  -0.001977   0.001855
    14  H    0.010850   0.000755  -0.016017   0.003430  -0.000017   0.000005
    15  N    0.005028   0.000446   0.002057   0.007500   0.000020   0.000018
    16  C    0.024145   0.004042  -0.060689  -0.057739   0.001494   0.000031
    17  C    0.003308   0.000682  -0.009080  -0.006794   0.000030   0.000005
    18  N    0.000071  -0.000001  -0.000039   0.000076   0.000000   0.000000
    19  H   -0.000001   0.000000   0.000000   0.000000   0.000000   0.000000
    20  H    0.000007   0.000000   0.000000   0.000000   0.000000   0.000000
    21  N   -0.000112   0.000001  -0.000051  -0.000617   0.000000   0.000000
    22  C   -0.000160  -0.000037  -0.001862  -0.000642  -0.000011  -0.000015
    23  H    0.000000   0.000000   0.000000  -0.000003   0.000000   0.000000
    24  N    0.001183  -0.000030  -0.005085   0.000286   0.000032  -0.000028
    25  C   -0.041676   0.001367  -0.068004  -0.217271  -0.003714  -0.001134
    26  C    0.020350  -0.004351   0.247207   0.340921   0.031138  -0.009751
    27  H    0.002233   0.000079   0.005999  -0.009294   0.000112   0.001076
    28  C   -0.071883   0.004816  -0.503058  -0.138464  -0.043296   0.017402
    29  H    0.016444  -0.002916  -0.248464  -0.009722  -0.000656   0.000074
    30  O    0.002892   0.000278   0.026665   0.020627   0.000042  -0.000081
    31  H   -0.000213  -0.000004   0.002271   0.004659  -0.000001   0.000001
    32  O    0.003842   0.000049   0.007221   0.077142  -0.000369  -0.000784
    33  O    0.027018  -0.082982   0.049451   0.009663   0.000102   0.000037
    34  H    0.027096  -0.010179   0.006786   0.000890  -0.000001  -0.000002
    35  H    0.000237   0.000000   0.000081  -0.000565   0.000003  -0.000009
    36  O    0.040001  -0.062785   0.033056   0.013368  -0.001753   0.005829
    37  H    0.038124  -0.008571   0.005372  -0.003118   0.000024  -0.000108
               7          8          9         10         11         12
     1  P   -0.097687   0.000923  -0.005392  -0.007621  -0.000296  -0.001121
     2  O    0.030982  -0.000030  -0.003543  -0.013271  -0.000009  -0.000344
     3  O   -0.286255   0.015553   0.053283   0.260661   0.001793  -0.041010
     4  C   -0.654464  -0.014856   0.069373  -0.630068   0.003897   0.019426
     5  H   -0.015416  -0.003735  -0.008796   0.028698  -0.000025   0.000759
     6  H   -0.051276   0.001461   0.009595  -0.016052   0.000033  -0.001537
     7  C    8.140027   0.286615   0.155657  -1.383363  -0.023320   0.128185
     8  H    0.286615   0.514486  -0.040103   0.029488   0.000372  -0.002003
     9  O    0.155657  -0.040103   8.241414  -0.395923  -0.042065  -0.046423
    10  C   -1.383363   0.029488  -0.395923  22.186230   0.417021  -1.031802
    11  H   -0.023320   0.000372  -0.042065   0.417021   0.480157  -0.059967
    12  N    0.128185  -0.002003  -0.046423  -1.031802  -0.059967   8.059493
    13  C    0.061049   0.001783  -0.000664  -1.990979   0.007663   0.490330
    14  H   -0.007719   0.000001  -0.003909  -0.026070  -0.000183  -0.098598
    15  N   -0.008170  -0.000052  -0.010869   0.035399  -0.003463  -0.010933
    16  C   -0.089275   0.000503   0.027735   1.399156   0.052567  -0.287448
    17  C    0.006529   0.000012  -0.004604   1.188600   0.008217  -0.041389
    18  N   -0.000154   0.000000   0.000025   0.014046   0.000007  -0.005207
    19  H   -0.000001   0.000000   0.000000  -0.000709   0.000000  -0.000228
    20  H    0.000002   0.000000   0.000000   0.002165   0.000000   0.001567
    21  N   -0.000865   0.000000  -0.000030  -0.017359   0.000379  -0.001902
    22  C    0.000783  -0.000051   0.008659  -0.407494  -0.005603  -0.009918
    23  H   -0.000180   0.000000  -0.000002  -0.015944  -0.000002  -0.000645
    24  N    0.028167  -0.000119   0.022082   0.347198  -0.001437  -0.494924
    25  C    0.113174  -0.000018  -0.055435  -4.287667  -0.053696   0.139199
    26  C   -1.273087  -0.044991  -0.015876   1.144173  -0.036965  -0.065118
    27  H   -0.020833  -0.001274   0.001279   0.061527  -0.000018  -0.000081
    28  C    0.975279   0.031972   0.168823  -9.174963  -0.027767   0.477047
    29  H    0.091010  -0.000306   0.010003  -0.470308   0.005691   0.024844
    30  O    0.056266  -0.000577   0.034780  -0.517486   0.000030   0.048796
    31  H   -0.011337   0.000008   0.000247  -0.059016  -0.000243   0.012330
    32  O   -0.076028   0.000336   0.039898  -0.221223   0.007462   0.017219
    33  O    0.000775   0.000018  -0.000037   0.004696   0.000000   0.001165
    34  H    0.001450   0.000000  -0.000004  -0.000045   0.000000  -0.000011
    35  H    0.014062  -0.000041   0.000455  -0.060145   0.000084   0.001100
    36  O   -0.024433   0.000081   0.000323   0.013011   0.000001  -0.001301
    37  H   -0.001599   0.000000  -0.000003  -0.000264   0.000000  -0.000019
              13         14         15         16         17         18
     1  P   -0.059412   0.010850   0.005028   0.024145   0.003308   0.000071
     2  O    0.009307   0.000755   0.000446   0.004042   0.000682  -0.000001
     3  O    0.075175  -0.016017   0.002057  -0.060689  -0.009080  -0.000039
     4  C   -0.072114   0.003430   0.007500  -0.057739  -0.006794   0.000076
     5  H   -0.001977  -0.000017   0.000020   0.001494   0.000030   0.000000
     6  H    0.001855   0.000005   0.000018   0.000031   0.000005   0.000000
     7  C    0.061049  -0.007719  -0.008170  -0.089275   0.006529  -0.000154
     8  H    0.001783   0.000001  -0.000052   0.000503   0.000012   0.000000
     9  O   -0.000664  -0.003909  -0.010869   0.027735  -0.004604   0.000025
    10  C   -1.990979  -0.026070   0.035399   1.399156   1.188600   0.014046
    11  H    0.007663  -0.000183  -0.003463   0.052567   0.008217   0.000007
    12  N    0.490330  -0.098598  -0.010933  -0.287448  -0.041389  -0.005207
    13  C    9.535173   0.338602   0.441466  -0.853176  -3.982392  -0.116925
    14  H    0.338602   0.529063  -0.043586   0.044194   0.012193   0.000174
    15  N    0.441466  -0.043586   6.970787   0.221313  -0.560582   0.016310
    16  C   -0.853176   0.044194   0.221313  33.649573 -10.970606  -0.320287
    17  C   -3.982392   0.012193  -0.560582 -10.970606  21.885994   0.260624
    18  N   -0.116925   0.000174   0.016310  -0.320287   0.260624   7.562989
    19  H    0.009613   0.000000   0.002592   0.288439  -0.269132   0.261514
    20  H   -0.018511  -0.000003   0.003320  -0.128678   0.132382   0.282914
    21  N   -0.043276   0.000180  -0.012046   0.201300   0.446873  -0.266469
    22  C    0.233095   0.000100   0.047473   0.117295  -1.311854   0.050872
    23  H   -0.001558   0.000000   0.000382  -0.036812   0.023356   0.000167
    24  N   -0.136384  -0.000267   0.006250   0.466167  -0.367227  -0.018957
    25  C    1.638623   0.023508   0.200738 -16.235434  -0.657396   0.172390
    26  C   -0.451245   0.001325   0.012454   0.185670   0.005693   0.000603
    27  H    0.001566   0.000008  -0.000005   0.000764   0.000000   0.000000
    28  C    0.697390   0.034153  -0.001999  -1.618025  -0.265997  -0.003213
    29  H   -0.023380   0.001779  -0.000838  -0.004732   0.001523  -0.000008
    30  O    0.009511  -0.006845  -0.006348  -0.050604  -0.005991  -0.000142
    31  H    0.033131   0.000605  -0.002550  -0.035230  -0.009482  -0.000009
    32  O   -0.001774  -0.000037   0.000254  -0.009818  -0.001521  -0.000004
    33  O    0.005025  -0.002551   0.002861  -0.012687  -0.003505  -0.000004
    34  H    0.001389  -0.000062  -0.000077  -0.000256  -0.000027   0.000000
    35  H   -0.000673   0.000000   0.000013   0.000123   0.000016   0.000000
    36  O   -0.003313   0.000087   0.000065   0.000327  -0.000024   0.000000
    37  H    0.000131   0.000000  -0.000001   0.000019   0.000001   0.000000
              19         20         21         22         23         24
     1  P   -0.000001   0.000007  -0.000112  -0.000160   0.000000   0.001183
     2  O    0.000000   0.000000   0.000001  -0.000037   0.000000  -0.000030
     3  O    0.000000   0.000000  -0.000051  -0.001862   0.000000  -0.005085
     4  C    0.000000   0.000000  -0.000617  -0.000642  -0.000003   0.000286
     5  H    0.000000   0.000000   0.000000  -0.000011   0.000000   0.000032
     6  H    0.000000   0.000000   0.000000  -0.000015   0.000000  -0.000028
     7  C   -0.000001   0.000002  -0.000865   0.000783  -0.000180   0.028167
     8  H    0.000000   0.000000   0.000000  -0.000051   0.000000  -0.000119
     9  O    0.000000   0.000000  -0.000030   0.008659  -0.000002   0.022082
    10  C   -0.000709   0.002165  -0.017359  -0.407494  -0.015944   0.347198
    11  H    0.000000   0.000000   0.000379  -0.005603  -0.000002  -0.001437
    12  N   -0.000228   0.001567  -0.001902  -0.009918  -0.000645  -0.494924
    13  C    0.009613  -0.018511  -0.043276   0.233095  -0.001558  -0.136384
    14  H    0.000000  -0.000003   0.000180   0.000100   0.000000  -0.000267
    15  N    0.002592   0.003320  -0.012046   0.047473   0.000382   0.006250
    16  C    0.288439  -0.128678   0.201300   0.117295  -0.036812   0.466167
    17  C   -0.269132   0.132382   0.446873  -1.311854   0.023356  -0.367227
    18  N    0.261514   0.282914  -0.266469   0.050872   0.000167  -0.018957
    19  H    0.308401  -0.015007   0.010287   0.002696  -0.000024   0.001074
    20  H   -0.015007   0.303258   0.013244  -0.001329   0.000003   0.000011
    21  N    0.010287   0.013244   7.249901   0.116282  -0.091695   0.041911
    22  C    0.002696  -0.001329   0.116282   5.820898   0.485828   0.002622
    23  H   -0.000024   0.000003  -0.091695   0.485828   0.556600  -0.128813
    24  N    0.001074   0.000011   0.041911   0.002622  -0.128813   7.647318
    25  C   -0.028708   0.005193  -0.209975   0.598393   0.023610  -0.110837
    26  C   -0.000001   0.000008  -0.000808  -0.008992  -0.000147   0.033322
    27  H    0.000000   0.000000   0.000001  -0.000007   0.000000   0.000051
    28  C    0.000034  -0.000132  -0.013979   0.073725  -0.000711   0.035866
    29  H    0.000000   0.000000   0.000001   0.000690   0.000000   0.000558
    30  O    0.000000   0.000000  -0.000411   0.002976  -0.000001   0.005343
    31  H    0.000000   0.000000  -0.000025   0.001250   0.000000   0.001036
    32  O    0.000000   0.000000  -0.000090   0.001418  -0.000003   0.002751
    33  O    0.000000   0.000000  -0.000010   0.000046   0.000000   0.000016
    34  H    0.000000   0.000000   0.000000   0.000000   0.000000   0.000000
    35  H    0.000000   0.000000   0.000000  -0.000001   0.000000   0.000069
    36  O    0.000000   0.000000   0.000000   0.000000   0.000000  -0.000005
    37  H    0.000000   0.000000   0.000000   0.000000   0.000000   0.000000
              25         26         27         28         29         30
     1  P   -0.041676   0.020350   0.002233  -0.071883   0.016444   0.002892
     2  O    0.001367  -0.004351   0.000079   0.004816  -0.002916   0.000278
     3  O   -0.068004   0.247207   0.005999  -0.503058  -0.248464   0.026665
     4  C   -0.217271   0.340921  -0.009294  -0.138464  -0.009722   0.020627
     5  H   -0.003714   0.031138   0.000112  -0.043296  -0.000656   0.000042
     6  H   -0.001134  -0.009751   0.001076   0.017402   0.000074  -0.000081
     7  C    0.113174  -1.273087  -0.020833   0.975279   0.091010   0.056266
     8  H   -0.000018  -0.044991  -0.001274   0.031972  -0.000306  -0.000577
     9  O   -0.055435  -0.015876   0.001279   0.168823   0.010003   0.034780
    10  C   -4.287667   1.144173   0.061527  -9.174963  -0.470308  -0.517486
    11  H   -0.053696  -0.036965  -0.000018  -0.027767   0.005691   0.000030
    12  N    0.139199  -0.065118  -0.000081   0.477047   0.024844   0.048796
    13  C    1.638623  -0.451245   0.001566   0.697390  -0.023380   0.009511
    14  H    0.023508   0.001325   0.000008   0.034153   0.001779  -0.006845
    15  N    0.200738   0.012454  -0.000005  -0.001999  -0.000838  -0.006348
    16  C  -16.235434   0.185670   0.000764  -1.618025  -0.004732  -0.050604
    17  C   -0.657396   0.005693   0.000000  -0.265997   0.001523  -0.005991
    18  N    0.172390   0.000603   0.000000  -0.003213  -0.000008  -0.000142
    19  H   -0.028708  -0.000001   0.000000   0.000034   0.000000   0.000000
    20  H    0.005193   0.000008   0.000000  -0.000132   0.000000   0.000000
    21  N   -0.209975  -0.000808   0.000001  -0.013979   0.000001  -0.000411
    22  C    0.598393  -0.008992  -0.000007   0.073725   0.000690   0.002976
    23  H    0.023610  -0.000147   0.000000  -0.000711   0.000000  -0.000001
    24  N   -0.110837   0.033322   0.000051   0.035866   0.000558   0.005343
    25  C   24.698325  -0.839390   0.002613   1.113844   0.065801  -0.059333
    26  C   -0.839390  10.844514   0.325617  -4.553262  -0.264021  -0.019056
    27  H    0.002613   0.325617   0.561384  -0.070064  -0.003914  -0.001153
    28  C    1.113844  -4.553262  -0.070064  17.752294   0.947088   0.492547
    29  H    0.065801  -0.264021  -0.003914   0.947088   0.639523  -0.057533
    30  O   -0.059333  -0.019056  -0.001153   0.492547  -0.057533   8.451379
    31  H    0.024360   0.061721   0.000001  -0.006398  -0.008968   0.167715
    32  O    0.023720   0.325548  -0.054993  -0.107768   0.010785   0.030753
    33  O    0.002774   0.009396  -0.000035  -0.002307  -0.000002  -0.001099
    34  H    0.000025  -0.000846   0.000000   0.000013   0.000018  -0.000001
    35  H   -0.002046   0.061838  -0.005128  -0.019529   0.000326   0.009041
    36  O   -0.000763  -0.006249   0.000280  -0.001286  -0.000922  -0.000390
    37  H   -0.000053   0.000516   0.000001  -0.000543  -0.000002  -0.000001
              31         32         33         34         35         36
     1  P   -0.000213   0.003842   0.027018   0.027096   0.000237   0.040001
     2  O   -0.000004   0.000049  -0.082982  -0.010179   0.000000  -0.062785
     3  O    0.002271   0.007221   0.049451   0.006786   0.000081   0.033056
     4  C    0.004659   0.077142   0.009663   0.000890  -0.000565   0.013368
     5  H   -0.000001  -0.000369   0.000102  -0.000001   0.000003  -0.001753
     6  H    0.000001  -0.000784   0.000037  -0.000002  -0.000009   0.005829
     7  C   -0.011337  -0.076028   0.000775   0.001450   0.014062  -0.024433
     8  H    0.000008   0.000336   0.000018   0.000000  -0.000041   0.000081
     9  O    0.000247   0.039898  -0.000037  -0.000004   0.000455   0.000323
    10  C   -0.059016  -0.221223   0.004696  -0.000045  -0.060145   0.013011
    11  H   -0.000243   0.007462   0.000000   0.000000   0.000084   0.000001
    12  N    0.012330   0.017219   0.001165  -0.000011   0.001100  -0.001301
    13  C    0.033131  -0.001774   0.005025   0.001389  -0.000673  -0.003313
    14  H    0.000605  -0.000037  -0.002551  -0.000062   0.000000   0.000087
    15  N   -0.002550   0.000254   0.002861  -0.000077   0.000013   0.000065
    16  C   -0.035230  -0.009818  -0.012687  -0.000256   0.000123   0.000327
    17  C   -0.009482  -0.001521  -0.003505  -0.000027   0.000016  -0.000024
    18  N   -0.000009  -0.000004  -0.000004   0.000000   0.000000   0.000000
    19  H    0.000000   0.000000   0.000000   0.000000   0.000000   0.000000
    20  H    0.000000   0.000000   0.000000   0.000000   0.000000   0.000000
    21  N   -0.000025  -0.000090  -0.000010   0.000000   0.000000   0.000000
    22  C    0.001250   0.001418   0.000046   0.000000  -0.000001   0.000000
    23  H    0.000000  -0.000003   0.000000   0.000000   0.000000   0.000000
    24  N    0.001036   0.002751   0.000016   0.000000   0.000069  -0.000005
    25  C    0.024360   0.023720   0.002774   0.000025  -0.002046  -0.000763
    26  C    0.061721   0.325548   0.009396  -0.000846   0.061838  -0.006249
    27  H    0.000001  -0.054993  -0.000035   0.000000  -0.005128   0.000280
    28  C   -0.006398  -0.107768  -0.002307   0.000013  -0.019529  -0.001286
    29  H   -0.008968   0.010785  -0.000002   0.000018   0.000326  -0.000922
    30  O    0.167715   0.030753  -0.001099  -0.000001   0.009041  -0.000390
    31  H    0.324055   0.000464   0.000094   0.000000  -0.000332   0.000021
    32  O    0.000464   8.366008  -0.000056   0.000000   0.179332  -0.000118
    33  O    0.000094  -0.000056   8.757156   0.155805   0.000000  -0.051218
    34  H    0.000000   0.000000   0.155805   0.283287   0.000000  -0.007293
    35  H   -0.000332   0.179332   0.000000   0.000000   0.318401  -0.000003
    36  O    0.000021  -0.000118  -0.051218  -0.007293  -0.000003   8.748056
    37  H    0.000000   0.000000  -0.007434   0.000230   0.000000   0.158194
              37
     1  P    0.038124
     2  O   -0.008571
     3  O    0.005372
     4  C   -0.003118
     5  H    0.000024
     6  H   -0.000108
     7  C   -0.001599
     8  H    0.000000
     9  O   -0.000003
    10  C   -0.000264
    11  H    0.000000
    12  N   -0.000019
    13  C    0.000131
    14  H    0.000000
    15  N   -0.000001
    16  C    0.000019
    17  C    0.000001
    18  N    0.000000
    19  H    0.000000
    20  H    0.000000
    21  N    0.000000
    22  C    0.000000
    23  H    0.000000
    24  N    0.000000
    25  C   -0.000053
    26  C    0.000516
    27  H    0.000001
    28  C   -0.000543
    29  H   -0.000002
    30  O   -0.000001
    31  H    0.000000
    32  O    0.000000
    33  O   -0.007434
    34  H    0.000230
    35  H    0.000000
    36  O    0.158194
    37  H    0.291505
 Mulliken charges:
               1
     1  P    1.901793
     2  O   -0.682205
     3  O   -0.593589
     4  C   -0.255233
     5  H    0.275478
     6  H    0.237690
     7  C   -0.064550
     8  H    0.224544
     9  O   -0.209953
    10  C   -0.404294
    11  H    0.269686
    12  N   -0.219533
    13  C    0.165874
    14  H    0.204851
    15  N   -0.315228
    16  C    0.086639
    17  C    0.491561
    18  N   -0.891363
    19  H    0.429160
    20  H    0.419584
    21  N   -0.420641
    22  C    0.182877
    23  H    0.186596
    24  N   -0.379200
    25  C    0.024896
    26  C   -0.057856
    27  H    0.202207
    28  C   -0.197650
    29  H    0.280535
    30  O   -0.632590
    31  H    0.499838
    32  O   -0.619617
    33  O   -0.862170
    34  H    0.541816
    35  H    0.503290
    36  O   -0.850842
    37  H    0.527602
 Sum of Mulliken charges =   0.00000
 Mulliken charges with hydrogens summed into heavy atoms:
               1
     1  P    1.901793
     2  O   -0.682205
     3  O   -0.593589
     4  C    0.257934
     7  C    0.159994
     9  O   -0.209953
    10  C   -0.134608
    12  N   -0.219533
    13  C    0.370725
    15  N   -0.315228
    16  C    0.086639
    17  C    0.491561
    18  N   -0.042619
    21  N   -0.420641
    22  C    0.369474
    24  N   -0.379200
    25  C    0.024896
    26  C    0.144351
    28  C    0.082885
    30  O   -0.132752
    32  O   -0.116327
    33  O   -0.320354
    36  O   -0.323241
 Electronic spatial extent (au):  <R**2>=           8269.3647
 Charge=              0.0000 electrons
 Dipole moment (field-independent basis, Debye):
    X=              6.2565    Y=             -2.4388    Z=              3.3965  Tot=              7.5251
 Quadrupole moment (field-independent basis, Debye-Ang):
   XX=           -119.4208   YY=           -133.1564   ZZ=           -147.7626
   XY=              1.7729   XZ=              2.5029   YZ=             -7.7168
 Traceless Quadrupole moment (field-independent basis, Debye-Ang):
   XX=             14.0258   YY=              0.2902   ZZ=            -14.3160
   XY=              1.7729   XZ=              2.5029   YZ=             -7.7168
 Octapole moment (field-independent basis, Debye-Ang**2):
  XXX=            181.7488  YYY=            -70.4756  ZZZ=              6.7864  XYY=             33.2281
  XXY=           -104.6954  XXZ=             34.9938  XZZ=              8.7469  YZZ=             15.2609
  YYZ=             41.7363  XYZ=            -32.7692
 Hexadecapole moment (field-independent basis, Debye-Ang**3):
 XXXX=          -6720.3922 YYYY=          -2479.6031 ZZZZ=           -776.2073 XXXY=           -144.7070
 XXXZ=             53.5968 YYYX=            -52.0011 YYYZ=             -1.0710 ZZZX=            -12.1899
 ZZZY=            -29.9580 XXYY=          -1130.2882 XXZZ=          -1420.9469 YYZZ=           -580.7269
 XXYZ=           -177.0210 YYXZ=             87.1500 ZZXY=             19.6463
 N-N= 2.301588897940D+03 E-N=-8.194571087151D+03  KE= 1.519788252165D+03
 Calling FoFJK, ICntrl=      2127 FMM=F ISym2X=0 I1Cent= 0 IOpClX= 0 NMat=1 NMatS=1 NMatT=0.
 ***** Axes restored to original set *****
 -------------------------------------------------------------------
 Center     Atomic                   Forces (Hartrees/Bohr)
 Number     Number              X              Y              Z
 -------------------------------------------------------------------
      1       15          -0.017707935   -0.044738346   -0.026000892
      2        8          -0.003978592    0.020489243    0.012385237
      3        8          -0.114873117   -0.057960247   -0.005973917
      4        6           0.027440573   -0.009131146    0.007590168
      5        1          -0.000092861   -0.013102513   -0.009228807
      6        1          -0.006629451   -0.002519031    0.016757501
      7        6          -0.013516704    0.015847407   -0.019697092
      8        1           0.013451601   -0.011564284    0.002455522
      9        8          -0.008333665    0.012360781    0.014451227
     10        6          -0.007240005   -0.007332109   -0.021945489
     11        1           0.014707933    0.004802049   -0.005964188
     12        7           0.002241218   -0.023137104    0.087550252
     13        6          -0.000863217    0.006883240   -0.037737754
     14        1          -0.003699874   -0.001604558    0.003282694
     15        7           0.018591249    0.006332726   -0.017594805
     16        6          -0.114830169    0.002605287   -0.033557288
     17        6           0.028325015    0.000093394    0.004543985
     18        7           0.000233656    0.002198890   -0.008546115
     19        1           0.004343241    0.001812433   -0.007639224
     20        1          -0.008734249   -0.000624791    0.000465755
     21        7           0.017734801    0.004909374   -0.019063503
     22        6          -0.057506574    0.001319812   -0.015009418
     23        1           0.010343391    0.001036246   -0.002672117
     24        7           0.033122511   -0.008282739    0.045134850
     25        6           0.073431158   -0.000570525    0.008832384
     26        6           0.010388959    0.014457111    0.004450817
     27        1          -0.015423578   -0.003699244    0.013606495
     28        6           0.017749210    0.050510541   -0.011055433
     29        1           0.018136711    0.029893931    0.004504545
     30        8           0.018235561    0.001667020    0.018468000
     31        1          -0.003318035    0.002405181   -0.008113532
     32        8           0.005467746   -0.019754127    0.000340504
     33        8           0.051951278   -0.001156269    0.036685739
     34        1          -0.010829705   -0.007814704   -0.002262713
     35        1          -0.004059173    0.010065608    0.001856048
     36        8           0.036914673    0.030879090   -0.029391600
     37        1          -0.011173580   -0.007577627   -0.001907836
 -------------------------------------------------------------------
 Cartesian Forces:  Max     0.114873117 RMS     0.026302480

 GradGradGradGradGradGradGradGradGradGradGradGradGradGradGradGradGradGrad
 Berny optimization.
 FormGI is forming the generalized inverse of G from B-inverse, IUseBI=4.
 Internal  Forces:  Max     0.173466314 RMS     0.028304015
 Search for a local minimum.
 Step number   1 out of a maximum of  213
 All quantities printed in internal units (Hartrees-Bohrs-Radians)
 Mixed Optimization -- RFO/linear search
 Second derivative matrix not updated -- first step.
 ITU=  0
     Eigenvalues ---    0.00237   0.00708   0.00766   0.00986   0.01295
     Eigenvalues ---    0.01295   0.01295   0.01671   0.01958   0.01958
     Eigenvalues ---    0.01958   0.02086   0.02338   0.02381   0.02407
     Eigenvalues ---    0.02476   0.02516   0.02516   0.02517   0.02600
     Eigenvalues ---    0.02644   0.02820   0.03112   0.03954   0.04679
     Eigenvalues ---    0.05139   0.05158   0.05332   0.05586   0.05743
     Eigenvalues ---    0.05816   0.05859   0.06093   0.06868   0.08048
     Eigenvalues ---    0.08538   0.08870   0.11175   0.11239   0.12172
     Eigenvalues ---    0.13585   0.13585   0.13704   0.15238   0.15946
     Eigenvalues ---    0.16000   0.16000   0.16000   0.16000   0.16000
     Eigenvalues ---    0.16000   0.16000   0.16000   0.16935   0.19925
     Eigenvalues ---    0.22071   0.22113   0.22113   0.23223   0.23640
     Eigenvalues ---    0.25000   0.25000   0.25000   0.25000   0.25000
     Eigenvalues ---    0.25000   0.26470   0.28519   0.29067   0.30278
     Eigenvalues ---    0.34282   0.34656   0.34713   0.34713   0.34713
     Eigenvalues ---    0.35247   0.35740   0.37230   0.37230   0.37230
     Eigenvalues ---    0.37230   0.37230   0.37230   0.37230   0.37230
     Eigenvalues ---    0.40989   0.40989   0.40989   0.45823   0.47688
     Eigenvalues ---    0.47688   0.48524   0.50812   0.53834   0.54806
     Eigenvalues ---    0.55473   0.55473   0.55473   0.55473   0.57723
[...]
 4296,-0.00057571,-0.00042961,-0.00107643,0.00519182,-0.00006165,-0.000
 38223,-0.00012171,-0.00604355,0.00238589,0.00086665,0.00048554,0.00178
 688,0.00046315,-0.00098711,0.00037431,-0.00211717,0.00104177,-0.000145
 08,0.00122507,-0.00009984,0.00013496,-0.00004297,-0.00030626,-0.000022
 22,-0.00010912,0.00025237,-0.00012374,0.00049728,-0.00022270,0.0001211
 7,-0.00053783,-0.00003368,-0.00004465,0.00000811,-0.00010939,-0.000635
 07,0.00018078,0.00043918,0.00052757,-0.00092300,0.00006775,-0.00005130
 ,0.00032339,0.00001375,-0.00000927,-0.00009828,0.00051394,0.00031474,0
 .00009476,-0.00006742,0.00026166,0.00017944,-0.00038480,-0.00025090,-0
 .00039594,0.00013096,0.00008042,0.00029289,-0.00012532,0.00004344,-0.0
 0042473,0.22089849,0.00130339,-0.16552142,0.09586741,-0.00219984,-0.02
 017090,0.02537145,0.00151932,0.00470279,0.00309098,-0.00153307,0.00226
 615,-0.00062402,-0.00085439,0.00033248,-0.00088330,0.00043265,-0.00028
 972,0.00042906,-0.00114681,0.00022495,0.00076681,0.00010264,0.00004924
 ,-0.00012005,0.00109700,0.00084611,-0.00097489,-0.00017945,-0.00129299
 ,0.00129413,0.00003149,0.00012826,-0.00017228,-0.00043193,0.00007894,-
 0.00102244,0.00107901,-0.00107109,0.00043695,-0.00062735,0.00003961,0.
 00025847,-0.00126437,0.00106040,0.00001073,0.00009654,0.00107212,0.000
 00696,0.00073571,0.00015190,0.00012999,-0.00062913,0.00007873,-0.00004
 026,0.00007474,-0.00001935,-0.00011346,0.00025234,-0.00018260,-0.00026
 690,-0.00039049,-0.00006243,-0.00009347,0.00036821,0.00009620,0.000243
 91,0.00002043,-0.00002330,-0.00002107,-0.00019270,0.00025706,-0.000269
 97,0.00076937,0.00011620,0.00026473,-0.00018832,-0.00049235,-0.0000918
 9,0.00001230,-0.00005908,-0.00005847,0.00044116,-0.00016550,0.00023659
 ,-0.00000588,0.00003172,0.00019779,-0.00009071,0.00038400,-0.00044754,
 0.00018792,-0.00010602,0.00032582,0.00031878,0.00040201,-0.00018275,-0
 .08777769,0.23970470,0.01748465,0.11534777,-0.18082971,-0.00120613,0.0
 0264164,0.00596267,-0.01593395,0.02157904,-0.02538802,0.00313768,-0.00
 822178,0.00399674,-0.00005896,0.00063872,-0.00031991,-0.00084474,0.001
 00299,-0.00134115,0.00239547,0.00119086,-0.00343626,-0.00096517,-0.000
 28661,0.00036183,-0.00207142,-0.00127903,0.00288274,0.00013928,0.00246
 843,-0.00355298,-0.00005706,-0.00017766,0.00054882,0.00220663,0.002400
 10,0.00343549,-0.00326152,0.00057006,-0.00757629,0.00041846,-0.0000784
 9,-0.00040040,0.00960627,-0.00258997,-0.00015850,-0.00047362,-0.003919
 46,0.00061784,-0.00068773,-0.00016672,-0.00015153,0.00079693,0.0000353
 2,-0.00016390,-0.00003229,-0.00005274,0.00017356,-0.00042407,0.0000278
 8,0.00052704,0.00037430,0.00042586,0.00008860,-0.00011095,-0.00000493,
 -0.00012498,0.00004262,0.00005455,0.00001000,0.00049440,0.00079888,0.0
 0090219,-0.00023924,-0.00024827,0.00035100,0.00083821,0.00089239,0.000
 49477,-0.00009186,0.00012323,0.00031619,0.00077984,-0.00015017,-0.0000
 4364,0.00015909,0.00024579,-0.00035452,-0.00071407,-0.00064691,0.00108
 161,-0.00010652,0.00008567,-0.00107576,-0.00100290,-0.00052203,0.00011
 409,-0.22092644,-0.03458083,0.47744887,0.00170338,-0.00521120,0.009982
 98,-0.00103814,0.00345025,-0.00338167,-0.00507979,0.00232063,-0.005130
 29,0.00012646,-0.00112093,0.00104241,0.00010170,0.00015484,-0.00003732
 ,-0.00015365,0.00012621,-0.00017723,0.00103167,0.00016540,-0.00137956,
 -0.00027953,-0.00008476,0.00015816,-0.00085370,-0.00062326,0.00158774,
 -0.00033094,0.00141067,-0.00241578,0.00005103,-0.00008863,0.00040913,0
 .00181230,0.00256780,0.00212366,-0.00603246,0.00183226,-0.00756430,0.0
 0044742,0.00013729,-0.00016128,0.00531259,-0.00235634,0.00029838,-0.00
 201642,-0.00345666,-0.00019488,0.00163495,-0.00049744,0.00250250,-0.00
 146341,0.00024308,-0.00144604,0.00012271,-0.00015610,0.00001866,0.0005
 0759,-0.00003224,0.00007425,-0.00044618,0.00020702,-0.00065933,0.00044
 450,-0.00002772,0.00064819,0.00003633,0.00005473,-0.00001125,0.0002043
 3,0.00104287,-0.00002050,-0.00021016,-0.00092477,0.00162276,0.00015374
 ,0.00036345,0.00003324,-0.00004727,0.00004009,0.00018892,0.00025582,-0
 .00042638,0.00005511,0.00013608,0.00000287,-0.00017878,-0.00012953,0.0
 0001730,0.00061514,-0.00006569,-0.00007061,-0.00058794,-0.00024432,-0.
 00016336,0.00027404,-0.16550049,0.08326084,0.19524711,0.16704792,-0.01
 426327,0.00683475,0.02139673,0.00212994,-0.00115374,-0.00337337,0.0006
 4758,-0.00196569,0.00066820,0.00006199,0.00050993,0.00009975,0.0000724
 8,-0.00007723,0.00012517,-0.00000461,-0.00005090,0.00002358,-0.0000601
 1,-0.00009147,0.00021939,0.00005603,0.00000447,-0.00001621,-0.00006999
 ,-0.00008107,-0.00018742,0.00002184,0.00006171,0.00011903,-0.00000245,
 -0.00000715,-0.00003015,-0.00046685,-0.00087110,0.00008135,0.00211491,
 0.00064954,0.00186209,0.00047692,-0.00034797,0.00012959,-0.00098247,-0
 .00161355,0.00049976,-0.00103416,0.00029483,-0.00028072,-0.00091538,-0
 .00033682,-0.00026723,0.00065723,-0.00003864,0.00023231,-0.00004242,0.
 00001485,0.00004222,-0.00022075,0.00023015,0.00016045,0.00038431,0.000
 05280,0.00019277,-0.00036976,-0.00005556,-0.00036095,-0.00003045,0.000
 01495,0.00002635,0.00009857,-0.00051917,0.00000224,-0.00099354,-0.0003
 6130,-0.00074995,0.00001142,-0.00000385,-0.00004950,0.00000514,-0.0000
 0697,-0.00002363,-0.00025176,0.00012890,-0.00006142,0.00002288,-0.0000
 4323,-0.00005475,0.00011248,-0.00006378,0.00000925,-0.00005052,0.00003
 067,0.00002272,0.00003580,-0.00005009,0.00003103,0.09774039,-0.0708111
 7,-0.11003367,-0.08249337,0.07090758,0.01442602,0.00128086,-0.03083547
 ,-0.00143373,-0.00500986,0.00303751,0.00163567,-0.00012974,0.00340288,
 -0.00137509,0.00124932,-0.00088782,-0.00005584,-0.00012532,0.00001356,
 0.00024470,-0.00026191,0.00037215,-0.00079761,0.00009055,0.00061996,0.
 00014966,0.00002206,-0.00008601,0.00084236,0.00040179,-0.00094561,0.00
 004460,-0.00118774,0.00152991,0.00000847,0.00005480,-0.00023910,-0.002
 78329,-0.00345978,-0.00307462,0.00416306,-0.00035266,0.00548286,-0.000
 89625,0.00065920,0.00041153,-0.00607671,0.00195082,-0.00003245,0.00121
 375,0.00355299,-0.00062699,0.00059075,-0.00007152,0.00076332,-0.000646
 62,-0.00013285,-0.00011434,-0.00006006,0.00002071,-0.00009249,0.000358
 45,0.00010627,-0.00050448,-0.00003062,-0.00035638,0.00012723,-0.000060
 00,0.00021612,-0.00015454,-0.00003263,-0.00003869,-0.00000624,-0.00039
 787,-0.00096689,-0.00054090,-0.00040453,0.00097812,-0.00109925,-0.0001
 6680,-0.00030232,-0.00019528,0.00004177,-0.00003484,-0.00013977,-0.000
 68467,0.00029926,-0.00022328,-0.00006155,-0.00016316,0.00006606,0.0003
 9952,0.00014302,-0.00040537,-0.00001133,0.00001245,0.00047236,0.000324
 41,0.00012171,-0.00002215,0.18468992,-0.08401763,-0.25007347,-0.193297
 88,0.08411156,0.27156625,-0.00028006,-0.00020154,-0.00022439,0.0000470
 2,0.00010408,0.00004703,0.00032101,0.00009911,0.00025446,0.00011898,-0
 .00113181,-0.00041239,-0.00026348,-0.00001200,-0.00002112,0.00001596,-
 0.00002188,0.00001264,-0.00417449,0.00162665,-0.00130515,-0.00002916,0
 .00016722,0.00003137,-0.00009216,0.00019534,0.00034882,0.00052710,-0.0
 0026133,-0.00046746,-0.00007260,0.00016022,0.00022301,-0.00010442,0.00
 012000,0.00014610,-0.00012795,-0.00006874,-0.00007573,0.00000449,-0.00
 001155,-0.00001492,0.00006047,-0.00002257,0.00009432,0.00003828,-0.000
 03435,0.00006444,-0.00006935,0.00000972,-0.00015655,0.00005933,0.00000
 193,0.00011692,0.00000293,0.00000855,-0.00001240,-0.00000362,-0.000006
 73,-0.00001308,0.00006241,-0.00003400,0.00011081,0.00000822,0.00017233
 ,-0.00008496,0.00000290,-0.00001849,0.00000577,-0.00014031,-0.00008422
 ,0.00042950,0.00001948,0.00000233,-0.00013640,-0.02568887,-0.02997566,
 0.00244350,-0.00103608,-0.00012969,-0.00042164,0.00100208,-0.00166040,
 -0.00129364,-0.00050165,-0.00048428,0.00061239,-0.00121466,-0.00009656
 ,0.00137022,0.00044959,0.00046860,0.00012181,-0.16276481,-0.17849087,0
 .02069059,0.00005320,0.00002784,0.00006707,-0.00001083,-0.00001417,-0.
 00002659,0.19370362,-0.00029315,0.00008309,-0.00024262,0.00007367,-0.0
 0000530,0.00006814,0.00004960,-0.00001889,0.00011728,0.00010178,0.0001
 8277,-0.00033962,0.00002466,0.00001281,0.00006412,-0.00002768,-0.00000
 647,0.00004624,-0.00165264,-0.00057505,0.00049658,-0.00009004,0.000505
 95,-0.00015415,0.00049174,-0.00011914,0.00026383,-0.00110186,-0.000416
 65,-0.00073834,0.00016670,0.00003130,-0.00026403,0.00030543,-0.0000530
 0,0.00027839,-0.00013452,-0.00014408,-0.00010805,-0.00001415,-0.000007
 07,-0.00001936,0.00001238,-0.00011641,0.00015987,0.00003586,-0.0000156
 6,0.00006236,0.00008387,0.00015338,0.00002727,-0.00004481,-0.00004358,
 -0.00004013,0.00000346,0.00000458,0.00000524,0.00000280,0.00001170,-0.
 00001135,-0.00014847,-0.00008569,-0.00014391,0.00002995,-0.00013931,0.
 00014163,0.00000284,-0.00001175,0.00001594,-0.00015326,-0.00020858,-0.
 00053954,0.00013475,0.00058501,-0.00020900,0.00446193,0.00361817,-0.00
 158033,0.00224233,-0.00071549,0.00081983,0.00245022,0.00227283,0.00251
 031,-0.00059317,-0.00075297,0.00014583,0.00154309,-0.00049544,-0.00111
 669,-0.00092596,-0.00105936,0.00063593,-0.21671523,-0.32487545,0.07294
 435,0.00001862,-0.00006723,0.00008797,0.00000819,0.00001005,-0.0000225
 0,0.20958087,0.32248739,-0.00007925,-0.00024128,0.00067094,0.00002523,
 0.00008642,-0.00020081,-0.00003046,0.00036737,-0.00051796,0.00018392,-
 0.00182452,-0.00034348,-0.00051182,-0.00004388,0.00000860,0.00010764,0
 .00007651,-0.00002160,-0.00651583,0.00081727,-0.00189649,0.00001281,0.
 00034597,0.00003204,0.00111540,0.00085236,-0.00099063,-0.00092225,-0.0
 0139702,-0.00023722,0.00036852,-0.00015193,-0.00042569,0.00040932,0.00
 050352,0.00023264,-0.00038174,-0.00037360,-0.00030193,-0.00000772,-0.0
 0000272,0.00003444,0.00034290,0.00000361,0.00033643,0.00011837,-0.0000
 1950,0.00020261,-0.00037367,-0.00010807,-0.00050012,0.00031571,0.00002
 081,0.00038696,-0.00002478,0.00003492,-0.00002911,-0.00005179,-0.00002
 226,-0.00001145,0.00037310,0.00004389,0.00049275,-0.00006858,0.0005664
 3,-0.00053481,-0.00002566,-0.00001422,-0.00000293,0.00012705,-0.000113
 40,0.00123555,-0.00022709,-0.00030214,-0.00024765,-0.01504256,-0.02065
 611,0.00225504,0.00011695,0.00024717,0.00025850,-0.00580742,-0.0029782
 3,-0.00182248,0.00068997,0.00021269,0.00081519,0.00024019,-0.00145376,
 0.00208719,0.00206577,0.00044933,-0.00158776,0.04597901,0.09826096,-0.
 03726502,0.00020464,0.00020036,-0.00034116,-0.00022957,-0.00001208,0.0
 0011381,-0.02253888,-0.07336601,0.03822784,-0.19099980,0.06544779,0.09
 463481,0.00150448,0.00395480,0.00679152,-0.03465590,0.00831775,-0.0021
 7894,0.00078170,-0.00665410,0.00917962,-0.00030389,0.00078628,-0.00033
 698,-0.00002489,0.00017504,-0.00121314,0.00068974,0.00158611,-0.002054
 36,-0.00095964,-0.00010214,0.00003196,-0.00096035,-0.00044841,0.000328
 19,0.00095184,0.00068281,-0.00071021,-0.00013787,-0.00006187,0.0001264
 8,-0.00008978,-0.00037614,0.00052990,-0.00001075,-0.00013633,0.0001054
 6,0.00028354,-0.00021290,-0.00019226,-0.00078833,0.00007895,0.00052212
 ,0.00023497,0.00001935,0.00046229,-0.00051792,0.00044886,-0.00126016,0
 .00059421,-0.00012402,0.00078865,-0.00007983,0.00010334,-0.00005382,-0
 .00010699,0.00001080,-0.00012416,0.00014405,-0.00021900,0.00037357,-0.
 00010870,0.00025881,-0.00039643,-0.00002740,-0.00004051,0.00000244,-0.
 00007465,-0.00050233,0.00038246,0.00009108,0.00063790,-0.00060930,0.00
 077630,0.00063171,0.00089831,-0.00001066,0.00001616,0.00005107,0.00086
 406,0.00033520,0.00001285,-0.00008848,0.00039163,-0.00016153,-0.000836
 54,-0.00076174,0.00007925,0.00006391,0.00017953,-0.00017976,-0.0008196
 0,-0.00038447,-0.00055140,-0.00823304,0.00382607,0.01683877,0.00295719
 ,-0.00246535,-0.00037775,0.00009246,0.00008207,0.00006626,0.59845668,0
 .04450992,-0.09079117,-0.04546978,0.02471199,-0.00742760,-0.01804169,-
 0.00981604,0.00906703,-0.00073480,-0.00095535,-0.00158175,0.00106219,-
 0.00065843,0.00039471,-0.00063384,0.00013113,-0.00004370,-0.00007593,-
 0.00036197,0.00061211,-0.00054095,-0.00020441,-0.00004362,-0.00001899,
 0.00032229,0.00032996,0.00007350,-0.00013250,-0.00031145,0.00008443,0.
 00002375,0.00004080,-0.00000939,-0.00000126,0.00020666,-0.00025531,-0.
 00006756,-0.00069134,0.00035897,-0.00048708,-0.00002249,0.00011208,-0.
 00039582,0.00044731,0.00000596,0.00002588,0.00030476,-0.00010248,0.000
 21453,-0.00021939,0.00031229,-0.00026686,0.00008099,-0.00013983,0.0000
 4652,-0.00004297,-0.00001490,0.00006538,-0.00006175,-0.00001651,-0.000
 01620,0.00013188,-0.00001683,0.00004731,0.00001093,0.00002607,0.000017
 88,0.00001032,-0.00000925,-0.00000657,0.00016212,-0.00002480,0.0001215
 5,-0.00003216,0.00004020,0.00019698,-0.00019378,-0.00013118,-0.0000114
 2,0.00000806,0.00007366,0.00010798,-0.00012936,0.00003591,0.00003665,-
 0.00001005,-0.00001638,-0.00003083,0.00019943,0.00002210,0.00005031,-0
 .00006138,-0.00003938,0.00000982,0.00016475,0.00004264,-0.00995234,0.0
 0955106,0.01210721,0.00002552,-0.00163311,0.00113490,0.00002612,-0.000
 03231,0.00000186,0.10859372,0.17774668,0.06761099,-0.04938711,-0.10996
 929,0.01215892,-0.00771797,0.00434222,-0.01127023,0.00213186,0.0057171
 7,-0.00006490,-0.00073826,0.00011924,-0.00019407,0.00008907,-0.0006174
 4,0.00052203,-0.00000319,0.00069089,0.00048836,0.00019183,-0.00044907,
 -0.00010216,-0.00004151,0.00002056,-0.00037010,-0.00017357,0.00090654,
 -0.00016355,0.00051515,-0.00093394,0.00001504,-0.00004288,0.00014070,0
 .00042512,0.00047537,0.00059681,-0.00074811,-0.00018241,-0.00150175,-0
 .00032218,0.00006017,0.00002125,0.00188772,-0.00035703,-0.00001403,-0.
 00013968,-0.00066051,0.00006161,-0.00004821,-0.00025160,0.00032599,0.0
 0004956,0.00004320,-0.00024116,0.00000005,-0.00004382,0.00006272,-0.00
 008373,-0.00000462,0.00015175,0.00014713,0.00021693,0.00000773,-0.0000
 4096,-0.00001023,-0.00002968,0.00001722,0.00002702,0.00000112,0.000139
 08,0.00026984,0.00019073,-0.00011587,-0.00003783,0.00008287,0.00027468
 ,0.00007027,-0.00012463,-0.00003261,0.00006238,0.00011467,0.00002072,-
 0.00010745,-0.00004886,0.00002337,-0.00001818,-0.00011321,-0.00003563,
 -0.00000004,0.00035136,-0.00005024,-0.00001363,-0.00031961,-0.00017232
 ,-0.00003332,0.00021591,0.02301786,-0.00452069,-0.02015011,0.00024068,
 0.00520891,0.00323066,0.00001557,0.00000427,-0.00014052,0.01178972,0.1
 2416241,0.17705119,-0.02993144,-0.01237743,-0.00714556,0.00574815,-0.0
 0236658,-0.00155697,-0.00137876,0.00184846,0.00174477,-0.00049926,-0.0
 0042419,0.00052232,-0.00018257,0.00009467,-0.00019243,0.00005869,0.000
 00210,-0.00009229,-0.00016069,0.00033364,-0.00025490,-0.00008218,-0.00
 002640,0.00000460,0.00016172,0.00003143,0.00000824,-0.00005336,-0.0000
 1097,-0.00006166,0.00002006,0.00000674,0.00000493,0.00007799,0.0001376
 3,0.00000707,-0.00015171,-0.00010359,-0.00018900,-0.00013689,0.0000161
 3,0.00003368,0.00032764,0.00000405,-0.00007310,-0.00002751,-0.00007764
 ,-0.00006485,0.00008361,-0.00010131,0.00027011,-0.00009412,0.00002271,
 -0.00017537,0.00001383,-0.00002363,0.00002201,0.00000704,-0.00000436,0
 .00004485,0.00000239,0.00005920,-0.00006155,0.00000979,-0.00003678,0.0
 0005955,0.00000545,0.00000943,0.00000041,0.00003078,0.00010815,-0.0000
 3385,-0.00001505,-0.00005180,0.00007784,-0.00002998,-0.00001619,-0.000
 06696,0.00000263,-0.00001550,-0.00000339,-0.00006263,-0.00008214,0.000
 01096,-0.00000589,-0.00000908,0.00000344,0.00007604,0.00008449,0.00002
 773,-0.00001906,-0.00002184,-0.00002547,0.00010821,0.00003102,0.000085
 65,0.00190594,0.00155438,-0.00181816,-0.00018519,0.00008145,0.00054431
 ,-0.00001502,-0.00001185,-0.00002370,-0.36865123,-0.15592059,-0.104889
 28,0.39304258,0.01329818,0.00670974,0.00025180,-0.00280648,-0.00227793
 ,0.00012824,0.00555258,0.00023531,-0.00079725,-0.00038346,0.00092619,-
 0.00052105,0.00012716,-0.00008993,0.00006248,-0.00000894,-0.00004079,0
 .00012426,0.00007674,-0.00014001,0.00011229,0.00007983,-0.00000618,0.0
 0001064,-0.00000922,-0.00006103,0.00004180,-0.00005667,0.00004675,-0.0
 0000540,0.00000201,-0.00000497,-0.00000071,0.00001471,-0.00003504,0.00
 001911,0.00001752,0.00008537,-0.00001502,0.00003211,0.00002643,-0.0000
 0060,0.00003504,-0.00005977,-0.00000471,0.00001740,-0.00003631,-0.0000
 0331,-0.00005933,0.00003303,-0.00004185,0.00007023,-0.00002323,0.00001
 326,-0.00001774,0.00001054,0.00001013,-0.00002214,0.00002068,0.0000136
 9,0.00001984,-0.00001544,0.00000440,-0.00002025,-0.00000461,-0.0000107
 0,-0.00000437,0.00000032,0.00000249,0.00001006,-0.00001859,0.00000741,
 -0.00002387,-0.00001276,-0.00000521,-0.00007035,0.00000361,-0.00003372
 ,0.00000323,0.00000317,-0.00000903,-0.00006118,0.00003273,-0.00002071,
 0.00000681,-0.00003718,0.00001028,0.00004911,-0.00001723,0.00000951,-0
 .00001671,0.00000738,0.00000496,0.00002422,-0.00002430,0.00002438,0.00
 065076,-0.00123949,0.00023492,0.00030243,0.00043836,0.00022730,-0.0000
 1005,0.00000587,-0.00001073,-0.18407538,-0.09614019,-0.06918283,0.1672
 5617,0.09169951,0.02039615,0.00557637,0.00447054,-0.00138781,0.0003104
 9,-0.00185020,0.00010295,-0.00119480,0.00179365,0.00076737,-0.00005767
 ,0.00003644,-0.00001699,-0.00001157,0.00009210,0.00002730,-0.00008098,
 -0.00009542,-0.00007979,-0.00013979,0.00021966,0.00004603,0.00002073,-
 0.00000312,0.00001519,0.00006927,-0.00019659,0.00002025,-0.00008798,0.
 00013735,-0.00000032,0.00000932,-0.00001686,-0.00006091,-0.00002226,-0
 .00007107,0.00008661,0.00002207,0.00010077,0.00003398,0.00000077,0.000
 01273,-0.00009808,-0.00000085,-0.00005454,-0.00002079,0.00005007,-0.00
 003824,0.00009081,0.00001643,0.00008222,-0.00010709,0.00001028,-0.0000
 3252,0.00001899,-0.00000130,-0.00001471,0.00005097,-0.00000092,-0.0000
 2126,-0.00006055,-0.00003999,-0.00003851,0.00002926,-0.00000126,0.0000
 4095,-0.00000152,-0.00000368,-0.00000111,-0.00002806,-0.00001835,-0.00
 005329,0.00001666,-0.00001459,0.00002987,-0.00001269,-0.00004113,0.000
 01413,0.00000506,-0.00000132,-0.00000403,0.00001480,0.00000177,0.00002
 547,-0.00001191,0.00000590,0.00000409,-0.00000840,0.00001419,-0.000062
 09,0.00001243,-0.00000266,0.00005123,0.00001564,0.00002149,-0.00004929
 ,0.00073447,-0.00063023,-0.00383175,-0.00024950,0.00023657,-0.00091042
 ,-0.00000105,0.00000027,0.00002829,-0.13359550,-0.07336416,-0.05975040
 ,0.11325602,0.06934950,0.05995594||-0.00001049,-0.00000265,0.00000163,
 -0.00000242,0.00000757,-0.00000144,0.00001978,-0.00000275,-0.00000438,
 -0.00000938,-0.00000894,-0.00000326,-0.00000852,0.00000595,-0.00000636
 ,0.00001009,-0.00000345,0.00000070,0.00000982,0.00000944,0.00003448,-0
 .00000371,0.00000103,-0.00000557,-0.00000041,-0.00000237,-0.00001907,-
 0.00000663,0.00002083,0.00000498,0.00000685,-0.00000182,0.00001186,-0.
 00000229,-0.00003834,0.00002928,-0.00001246,0.00002126,-0.00002800,0.0
 0000084,-0.00000401,-0.00000031,-0.00000001,-0.00000863,0.00000729,0.0
 0000266,0.00001517,0.00000670,-0.00001706,-0.00001141,0.00000529,0.000
 03690,-0.00001139,-0.00001651,-0.00001079,0.00000392,0.00000560,-0.000
 01131,0.00000468,0.00000743,-0.00000002,0.00000431,0.00000913,0.000009
 59,0.00000199,-0.00001494,-0.00000495,0.00000102,0.00000431,-0.0000155
 0,-0.00000422,-0.00000299,0.00001388,0.00001608,-0.00000712,0.00001849
 ,-0.00002160,0.00003045,-0.00000285,0.00000400,-0.00000986,0.00000624,
 0.00000623,-0.00002662,0.00000833,-0.00000122,0.00000488,-0.00000231,0
 .00000397,0.00001792,0.00000039,0.00000484,-0.00001802,-0.00001373,0.0
 0000420,-0.00001124,0.00001797,-0.00002780,-0.00001546,-0.00001038,0.0
 0001945,0.00001475,-0.00000339,0.00000122,0.00000081,-0.00001634,-0.00
 001051,-0.00001009,0.00000313,0.00000398,0.00000373|||@


 IF I HAVE SEEN FARTHER, IT IS BY STANDING ON THE
 SHOULDERS OF GIANTS. -- SIR ISAAC NEWTON
 Job cpu time:       0 days  2 hours 23 minutes 11.0 seconds.
 Elapsed time:       0 days  2 hours 23 minutes  9.7 seconds.
 File lengths (MBytes):  RWF=    880 Int=      0 D2E=      0 Chk=     19 Scr=      1
 Normal termination of Gaussian 16 at Tue Sep 15 21:14:16 2020.
