 Entering Link 1 = C:\G16W\l1.exe PID=     14572.
  
 Copyright (c) 1988-2017, Gaussian, Inc.  All Rights Reserved.
  
 This is part of the Gaussian(R) 16 program.  It is based on
 the Gaussian(R) 09 system (copyright 2009, Gaussian, Inc.),
 the Gaussian(R) 03 system (copyright 2003, Gaussian, Inc.),
 the Gaussian(R) 98 system (copyright 1998, Gaussian, Inc.),
 the Gaussian(R) 94 system (copyright 1995, Gaussian, Inc.),
 the Gaussian 92(TM) system (copyright 1992, Gaussian, Inc.),
 the Gaussian 90(TM) system (copyright 1990, Gaussian, Inc.),
 the Gaussian 88(TM) system (copyright 1988, Gaussian, Inc.),
 the Gaussian 86(TM) system (copyright 1986, Carnegie Mellon
 University), and the Gaussian 82(TM) system (copyright 1983,
 Carnegie Mellon University). Gaussian is a federally registered
 trademark of Gaussian, Inc.
  
 This software contains proprietary and confidential information,
 including trade secrets, belonging to Gaussian, Inc.
  
 This software is provided under written license and may be
 used, copied, transmitted, or stored only in accord with that
 written license.
  
 The following legend is applicable only to US Government
 contracts under FAR:
  
                    RESTRICTED RIGHTS LEGEND
  
 Use, reproduction and disclosure by the US Government is
 subject to restrictions as set forth in subparagraphs (a)
 and (c) of the Commercial Computer Software - Restricted
 Rights clause in FAR 52.227-19.
  
 Gaussian, Inc.
 340 Quinnipiac St., Bldg. 40, Wallingford CT 06492
  
  
 ---------------------------------------------------------------
 Warning -- This program may not be used in any manner that
 competes with the business of Gaussian, Inc. or will provide
 assistance to any competitor of Gaussian, Inc.  The licensee
 of this program is prohibited from giving any competitor of
 Gaussian, Inc. access to this program.  By using this program,
 the user acknowledges that Gaussian, Inc. is engaged in the
 business of creating and licensing software in the field of
 computational chemistry and represents and warrants to the
 licensee that it is not a competitor of Gaussian, Inc. and that
 it will not use this program in any manner prohibited above.
 ---------------------------------------------------------------
  

 Cite this work as:
 Gaussian 16, Revision B.01,
 M. J. Frisch, G. W. Trucks, H. B. Schlegel, G. E. Scuseria, 
 M. A. Robb, J. R. Cheeseman, G. Scalmani, V. Barone, 
 G. A. Petersson, H. Nakatsuji, X. Li, M. Caricato, A. V. Marenich, 
 J. Bloino, B. G. Janesko, R. Gomperts, B. Mennucci, H. P. Hratchian, 
 J. V. Ortiz, A. F. Izmaylov, J. L. Sonnenberg, D. Williams-Young, 
 F. Ding, F. Lipparini, F. Egidi, J. Goings, B. Peng, A. Petrone, 
 T. Henderson, D. Ranasinghe, V. G. Zakrzewski, J. Gao, N. Rega, 
 G. Zheng, W. Liang, M. Hada, M. Ehara, K. Toyota, R. Fukuda, 
 J. Hasegawa, M. Ishida, T. Nakajima, Y. Honda, O. Kitao, H. Nakai, 
 T. Vreven, K. Throssell, J. A. Montgomery, Jr., J. E. Peralta, 
 F. Ogliaro, M. J. Bearpark, J. J. Heyd, E. N. Brothers, K. N. Kudin, 
 V. N. Staroverov, T. A. Keith, R. Kobayashi, J. Normand, 
 K. Raghavachari, A. P. Rendell, J. C. Burant, S. S. Iyengar, 
 J. Tomasi, M. Cossi, J. M. Millam, M. Klene, C. Adamo, R. Cammi, 
 J. W. Ochterski, R. L. Martin, K. Morokuma, O. Farkas, 
 J. B. Foresman, and D. J. Fox, Gaussian, Inc., Wallingford CT, 2016.
 
 ******************************************
 Gaussian 16:  EM64W-G16RevB.01 16-Dec-2017
                11-Sep-2020 
 ******************************************
 %nprocshared=6
 Will use up to    6 processors via shared memory.
 %chk=C:\Users\no83wec\Documents\BA_projektmodul\2020_10_10\paraAcetaminoPhenol\p
 araAcetaminoPhenol.chk
 -------------------------------------------------------------------
 # opt freq(raman, printderivatives) b3lyp/6-31+G* geom=connectivity
 -------------------------------------------------------------------
 1/18=20,19=15,26=3,38=1,57=2/1,3;
 2/9=110,12=2,17=6,18=5,40=1/2;
 3/5=1,6=6,7=11,11=2,25=1,30=1,71=1,74=-5/1,2,3;
 4//1;
 5/5=2,38=5/2;
 6/7=2,8=2,9=2,10=2,28=1/1;
 7//1,2,3,16;
 1/18=20,19=15,26=3/3(2);
 2/9=110/2;
 99//99;
 2/9=110/2;
 3/5=1,6=6,7=11,11=2,25=1,30=1,71=1,74=-5/1,2,3;
 4/5=5,16=3,69=1/1;
 5/5=2,38=5/2;
 7//1,2,3,16;
 1/18=20,19=15,26=3/3(-5);
 2/9=110/2;
 6/7=2,8=2,9=2,10=2,19=2,28=1/1;
 99/9=1/99;
 -----------------------------
 Optimierung und Ramantensoren
 -----------------------------
 Symbolic Z-matrix:
 Charge =  0 Multiplicity = 1
 C                    -2.13077  -0.71885   0.00401 
 C                    -0.7446   -0.60654  -0.16879 
 C                    -0.13306   0.65368  -0.12673 
 C                    -0.90768   1.8016    0.08815 
 C                    -2.29385   1.68929   0.26096 
 C                    -2.90539   0.42907   0.21889 
 H                    -0.15316  -1.483    -0.33286 
 H                     0.9253    0.73943  -0.25867 
 H                    -2.88529   2.56575   0.42502 
 H                    -3.96375   0.34331   0.35083 
 O                    -2.75479  -2.0048   -0.03892 
 H                    -2.77602  -2.37983   0.84454 
 N                    -0.26621   3.12352   0.13227 
 H                    -0.78592   3.72618   0.73783 
 C                    -0.23369   3.69778  -1.22052 
 C                    -1.33584   3.34097  -2.23519 
 H                    -1.7003    2.35528  -2.03401 
 H                    -2.13931   4.04252  -2.15048 
 H                    -0.93369   3.37721  -3.22608 
 O                     0.69476   4.48095  -1.54946 
 

 GradGradGradGradGradGradGradGradGradGradGradGradGradGradGradGradGradGrad
 Berny optimization.
 Initialization pass.
                           ----------------------------
                           !    Initial Parameters    !
                           ! (Angstroms and Degrees)  !
 --------------------------                            --------------------------
 ! Name  Definition              Value          Derivative Info.                !
 --------------------------------------------------------------------------------
 ! R1    R(1,2)                  1.4014         estimate D2E/DX2                !
 ! R2    R(1,6)                  1.4014         estimate D2E/DX2                !
 ! R3    R(1,11)                 1.43           estimate D2E/DX2                !
 ! R4    R(2,3)                  1.4014         estimate D2E/DX2                !
 ! R5    R(2,7)                  1.07           estimate D2E/DX2                !
 ! R6    R(3,4)                  1.4014         estimate D2E/DX2                !
 ! R7    R(3,8)                  1.07           estimate D2E/DX2                !
 ! R8    R(4,5)                  1.4014         estimate D2E/DX2                !
 ! R9    R(4,13)                 1.47           estimate D2E/DX2                !
 ! R10   R(5,6)                  1.4014         estimate D2E/DX2                !
 ! R11   R(5,9)                  1.07           estimate D2E/DX2                !
 ! R12   R(6,10)                 1.07           estimate D2E/DX2                !
 ! R13   R(11,12)                0.96           estimate D2E/DX2                !
 ! R14   R(13,14)                1.0            estimate D2E/DX2                !
 ! R15   R(13,15)                1.47           estimate D2E/DX2                !
 ! R16   R(15,16)                1.54           estimate D2E/DX2                !
 ! R17   R(15,20)                1.2584         estimate D2E/DX2                !
 ! R18   R(16,17)                1.07           estimate D2E/DX2                !
 ! R19   R(16,18)                1.07           estimate D2E/DX2                !
 ! R20   R(16,19)                1.07           estimate D2E/DX2                !
 ! A1    A(2,1,6)              120.0            estimate D2E/DX2                !
 ! A2    A(2,1,11)             120.0            estimate D2E/DX2                !
 ! A3    A(6,1,11)             120.0            estimate D2E/DX2                !
 ! A4    A(1,2,3)              120.0            estimate D2E/DX2                !
 ! A5    A(1,2,7)              120.0            estimate D2E/DX2                !
 ! A6    A(3,2,7)              120.0            estimate D2E/DX2                !
 ! A7    A(2,3,4)              120.0            estimate D2E/DX2                !
 ! A8    A(2,3,8)              120.0            estimate D2E/DX2                !
 ! A9    A(4,3,8)              120.0            estimate D2E/DX2                !
 ! A10   A(3,4,5)              120.0            estimate D2E/DX2                !
 ! A11   A(3,4,13)             120.0            estimate D2E/DX2                !
 ! A12   A(5,4,13)             120.0            estimate D2E/DX2                !
 ! A13   A(4,5,6)              120.0            estimate D2E/DX2                !
 ! A14   A(4,5,9)              120.0            estimate D2E/DX2                !
 ! A15   A(6,5,9)              120.0            estimate D2E/DX2                !
 ! A16   A(1,6,5)              120.0            estimate D2E/DX2                !
 ! A17   A(1,6,10)             120.0            estimate D2E/DX2                !
 ! A18   A(5,6,10)             120.0            estimate D2E/DX2                !
 ! A19   A(1,11,12)            109.4712         estimate D2E/DX2                !
 ! A20   A(4,13,14)            109.4712         estimate D2E/DX2                !
 ! A21   A(4,13,15)            109.4712         estimate D2E/DX2                !
 ! A22   A(14,13,15)           109.4712         estimate D2E/DX2                !
 ! A23   A(13,15,16)           120.0            estimate D2E/DX2                !
 ! A24   A(13,15,20)           120.0            estimate D2E/DX2                !
 ! A25   A(16,15,20)           120.0            estimate D2E/DX2                !
 ! A26   A(15,16,17)           109.4712         estimate D2E/DX2                !
 ! A27   A(15,16,18)           109.4712         estimate D2E/DX2                !
 ! A28   A(15,16,19)           109.4712         estimate D2E/DX2                !
 ! A29   A(17,16,18)           109.4712         estimate D2E/DX2                !
 ! A30   A(17,16,19)           109.4712         estimate D2E/DX2                !
 ! A31   A(18,16,19)           109.4712         estimate D2E/DX2                !
 ! D1    D(6,1,2,3)             -0.0001         estimate D2E/DX2                !
 ! D2    D(6,1,2,7)           -179.9999         estimate D2E/DX2                !
 ! D3    D(11,1,2,3)           179.9999         estimate D2E/DX2                !
 ! D4    D(11,1,2,7)             0.0001         estimate D2E/DX2                !
 ! D5    D(2,1,6,5)              0.0001         estimate D2E/DX2                !
 ! D6    D(2,1,6,10)          -179.9998         estimate D2E/DX2                !
 ! D7    D(11,1,6,5)          -179.9999         estimate D2E/DX2                !
 ! D8    D(11,1,6,10)            0.0002         estimate D2E/DX2                !
 ! D9    D(2,1,11,12)           90.0            estimate D2E/DX2                !
 ! D10   D(6,1,11,12)          -90.0            estimate D2E/DX2                !
 ! D11   D(1,2,3,4)             -0.0001         estimate D2E/DX2                !
 ! D12   D(1,2,3,8)            180.0            estimate D2E/DX2                !
 ! D13   D(7,2,3,4)            179.9998         estimate D2E/DX2                !
 ! D14   D(7,2,3,8)             -0.0002         estimate D2E/DX2                !
 ! D15   D(2,3,4,5)              0.0001         estimate D2E/DX2                !
 ! D16   D(2,3,4,13)          -179.9999         estimate D2E/DX2                !
 ! D17   D(8,3,4,5)           -179.9999         estimate D2E/DX2                !
 ! D18   D(8,3,4,13)             0.0001         estimate D2E/DX2                !
 ! D19   D(3,4,5,6)             -0.0001         estimate D2E/DX2                !
 ! D20   D(3,4,5,9)           -180.0            estimate D2E/DX2                !
 ! D21   D(13,4,5,6)           179.9999         estimate D2E/DX2                !
 ! D22   D(13,4,5,9)             0.0            estimate D2E/DX2                !
 ! D23   D(3,4,13,14)         -150.0            estimate D2E/DX2                !
 ! D24   D(3,4,13,15)           90.0            estimate D2E/DX2                !
 ! D25   D(5,4,13,14)           30.0            estimate D2E/DX2                !
 ! D26   D(5,4,13,15)          -90.0            estimate D2E/DX2                !
 ! D27   D(4,5,6,1)              0.0            estimate D2E/DX2                !
 ! D28   D(4,5,6,10)           179.9999         estimate D2E/DX2                !
 ! D29   D(9,5,6,1)            179.9999         estimate D2E/DX2                !
 ! D30   D(9,5,6,10)            -0.0002         estimate D2E/DX2                !
 ! D31   D(4,13,15,16)          30.0            estimate D2E/DX2                !
 ! D32   D(4,13,15,20)        -150.0            estimate D2E/DX2                !
 ! D33   D(14,13,15,16)        -90.0            estimate D2E/DX2                !
 ! D34   D(14,13,15,20)         90.0            estimate D2E/DX2                !
 ! D35   D(13,15,16,17)        -30.0            estimate D2E/DX2                !
 ! D36   D(13,15,16,18)         90.0            estimate D2E/DX2                !
 ! D37   D(13,15,16,19)       -150.0            estimate D2E/DX2                !
 ! D38   D(20,15,16,17)        150.0            estimate D2E/DX2                !
 ! D39   D(20,15,16,18)        -90.0            estimate D2E/DX2                !
 ! D40   D(20,15,16,19)         30.0            estimate D2E/DX2                !
 --------------------------------------------------------------------------------
 Trust Radius=3.00D-01 FncErr=1.00D-07 GrdErr=1.00D-06 EigMax=2.50D+02 EigMin=1.00D-04
 Number of steps in this run=    101 maximum allowed number of steps=    120.
 GradGradGradGradGradGradGradGradGradGradGradGradGradGradGradGradGradGrad

                          Input orientation:                          
 ---------------------------------------------------------------------
 Center     Atomic      Atomic             Coordinates (Angstroms)
 Number     Number       Type             X           Y           Z
 ---------------------------------------------------------------------
      1          6           0       -2.130766   -0.718851    0.004012
      2          6           0       -0.744604   -0.606542   -0.168795
      3          6           0       -0.133062    0.653683   -0.126726
      4          6           0       -0.907683    1.801600    0.088149
      5          6           0       -2.293845    1.689291    0.260958
      6          6           0       -2.905387    0.429065    0.218890
      7          1           0       -0.153164   -1.483002   -0.332859
      8          1           0        0.925304    0.739434   -0.258667
      9          1           0       -2.885286    2.565751    0.425020
     10          1           0       -3.963752    0.343314    0.350835
     11          8           0       -2.754788   -2.004796   -0.038917
     12          1           0       -2.776024   -2.379831    0.844541
     13          7           0       -0.266206    3.123516    0.132275
     14          1           0       -0.785923    3.726176    0.737828
     15          6           0       -0.233690    3.697784   -1.220522
     16          6           0       -1.335839    3.340974   -2.235192
     17          1           0       -1.700300    2.355279   -2.034013
     18          1           0       -2.139306    4.042518   -2.150479
     19          1           0       -0.933688    3.377212   -3.226081
     20          8           0        0.694757    4.480954   -1.549459
 ---------------------------------------------------------------------
                    Distance matrix (angstroms):
                    1          2          3          4          5
     1  C    0.000000
     2  C    1.401400   0.000000
     3  C    2.427296   1.401400   0.000000
     4  C    2.802800   2.427296   1.401400   0.000000
     5  C    2.427296   2.802800   2.427296   1.401400   0.000000
     6  C    1.401400   2.427296   2.802800   2.427296   1.401400
     7  H    2.146700   1.070000   2.146700   3.396345   3.872800
     8  H    3.396345   2.146700   1.070000   2.146700   3.396345
     9  H    3.396345   3.872800   3.396345   2.146700   1.070000
    10  H    2.146700   3.396345   3.872800   3.396345   2.146700
    11  O    1.430000   2.452106   3.734792   4.232800   3.734792
    12  H    1.970203   2.880637   4.138939   4.641896   4.138939
    13  N    4.272800   3.772644   2.486942   1.470000   2.486942
    14  H    4.701634   4.426751   3.257897   2.034920   2.578785
    15  C    4.960348   4.460313   3.236212   2.400500   3.236212
    16  C    4.704054   4.494713   3.621303   2.819735   3.142706
    17  H    3.713371   3.628330   2.998234   2.332033   2.462261
    18  H    5.226140   5.242712   4.427730   3.398539   3.372920
    19  H    5.352031   5.025241   4.202929   3.669789   4.105916
    20  O    6.118401   5.464487   4.166228   3.525410   4.472442
                    6          7          8          9         10
     6  C    0.000000
     7  H    3.396345   0.000000
     8  H    3.872800   2.471400   0.000000
     9  H    2.146700   4.942800   4.280590   0.000000
    10  H    1.070000   4.280590   4.942800   2.471400   0.000000
    11  O    2.452106   2.669667   4.595886   4.595886   2.669667
    12  H    2.880637   3.011639   4.964545   4.964546   3.011638
    13  N    3.772644   4.631321   2.693767   2.693767   4.631321
    14  H    3.953778   5.355585   3.583564   2.419041   4.657479
    15  C    4.460313   5.256898   3.319679   3.319678   5.256899
    16  C    4.118885   5.318678   3.973340   3.174663   4.751781
    17  H    3.199704   4.474366   3.557612   2.737761   3.854700
    18  H    4.388374   6.146533   4.886834   3.061131   4.823824
    19  H    4.944390   5.709784   4.383979   4.218737   5.583919
    20  O    5.701395   6.145556   3.964627   4.514784   6.514053
                   11         12         13         14         15
    11  O    0.000000
    12  H    0.960000   0.000000
    13  N    5.702800   6.090430   0.000000
    14  H    6.109321   6.423022   1.000000   0.000000
    15  C    6.345987   6.904010   1.470000   2.034920   0.000000
    16  C    5.950991   6.654810   2.606971   3.047890   1.540000
    17  H    4.909441   5.644867   2.709173   3.224678   2.148263
    18  H    6.434867   7.114922   3.092577   3.205313   2.148263
    19  H    6.514632   7.287504   3.433431   3.981983   2.148263
    20  O    7.499737   8.052822   2.365231   2.827328   1.258400
                   16         17         18         19         20
    16  C    0.000000
    17  H    1.070000   0.000000
    18  H    1.070000   1.747303   0.000000
    19  H    1.070000   1.747303   1.747303   0.000000
    20  O    2.427572   3.238764   2.930080   2.584792   0.000000
 Stoichiometry    C8H9NO2
 Framework group  C1[X(C8H9NO2)]
 Deg. of freedom    54
 Full point group                 C1      NOp   1
 Largest Abelian subgroup         C1      NOp   1
 Largest concise Abelian subgroup C1      NOp   1
                         Standard orientation:                         
 ---------------------------------------------------------------------
 Center     Atomic      Atomic             Coordinates (Angstroms)
 Number     Number       Type             X           Y           Z
 ---------------------------------------------------------------------
      1          6           0       -2.403218   -0.002203    0.153966
      2          6           0       -1.727580    1.212892    0.329981
      3          6           0       -0.384324    1.329474   -0.052108
      4          6           0        0.283296    0.230963   -0.610211
      5          6           0       -0.392342   -0.984131   -0.786226
      6          6           0       -1.735599   -1.100714   -0.404138
      7          1           0       -2.237321    2.051629    0.756107
      8          1           0        0.131541    2.257226    0.082282
      9          1           0        0.117400   -1.822870   -1.212350
     10          1           0       -2.251464   -2.028465   -0.538531
     11          8           0       -3.773888   -0.121165    0.543854
     12          1           0       -4.338599    0.115412   -0.195560
     13          7           0        1.692307    0.353251   -1.011000
     14          1           0        1.874746   -0.260190   -1.779379
     15          6           0        2.557017   -0.009008    0.121230
     16          6           0        2.073731   -1.036913    1.161155
     17          1           0        1.007583   -0.990909    1.239333
     18          1           0        2.366816   -2.019255    0.854551
     19          1           0        2.511005   -0.814770    2.112125
     20          8           0        3.692170    0.520825    0.240713
 ---------------------------------------------------------------------
 Rotational constants (GHZ):           2.9462216           0.5796770           0.5522275
 Standard basis: 6-31+G(d) (6D, 7F)
 There are   227 symmetry adapted cartesian basis functions of A   symmetry.
 There are   227 symmetry adapted basis functions of A   symmetry.
   227 basis functions,   388 primitive gaussians,   227 cartesian basis functions
    40 alpha electrons       40 beta electrons
       nuclear repulsion energy       573.9225741027 Hartrees.
 NAtoms=   20 NActive=   20 NUniq=   20 SFac= 1.00D+00 NAtFMM=   60 NAOKFM=F Big=F
 Integral buffers will be    131072 words long.
 Raffenetti 2 integral format.
 Two-electron integral symmetry is turned on.
 One-electron integrals computed using PRISM.
 NBasis=   227 RedAO= T EigKep=  3.28D-06  NBF=   227
 NBsUse=   227 1.00D-06 EigRej= -1.00D+00 NBFU=   227
 ExpMin= 4.38D-02 ExpMax= 5.48D+03 ExpMxC= 8.25D+02 IAcc=3 IRadAn=         5 AccDes= 0.00D+00
 Harris functional with IExCor=  402 and IRadAn=       5 diagonalized for initial guess.
 HarFok:  IExCor=  402 AccDes= 0.00D+00 IRadAn=         5 IDoV= 1 UseB2=F ITyADJ=14
 ICtDFT=  3500011 ScaDFX=  1.000000  1.000000  1.000000  1.000000
 FoFCou: FMM=F IPFlag=           0 FMFlag=      100000 FMFlg1=           0
         NFxFlg=           0 DoJE=T BraDBF=F KetDBF=T FulRan=T
         wScrn=  0.000000 ICntrl=       500 IOpCl=  0 I1Cent=   200000004 NGrid=           0
         NMat0=    1 NMatS0=      1 NMatT0=    0 NMatD0=    1 NMtDS0=    0 NMtDT0=    0
 Petite list used in FoFCou.
 Requested convergence on RMS density matrix=1.00D-08 within 128 cycles.
 Requested convergence on MAX density matrix=1.00D-06.
 Requested convergence on             energy=1.00D-06.
 No special actions if energy rises.
 SCF Done:  E(RB3LYP) =  -515.455722099     A.U. after   15 cycles
            NFock= 15  Conv=0.84D-08     -V/T= 2.0098

 **********************************************************************

            Population analysis using the SCF Density.

 **********************************************************************

 Orbital symmetries:
       Occupied  (A) (A) (A) (A) (A) (A) (A) (A) (A) (A) (A) (A)
                 (A) (A) (A) (A) (A) (A) (A) (A) (A) (A) (A) (A)
                 (A) (A) (A) (A) (A) (A) (A) (A) (A) (A) (A) (A)
                 (A) (A) (A) (A)
       Virtual   (A) (A) (A) (A) (A) (A) (A) (A) (A) (A) (A) (A)
                 (A) (A) (A) (A) (A) (A) (A) (A) (A) (A) (A) (A)
                 (A) (A) (A) (A) (A) (A) (A) (A) (A) (A) (A) (A)
                 (A) (A) (A) (A) (A) (A) (A) (A) (A) (A) (A) (A)
                 (A) (A) (A) (A) (A) (A) (A) (A) (A) (A) (A) (A)
                 (A) (A) (A) (A) (A) (A) (A) (A) (A) (A) (A) (A)
                 (A) (A) (A) (A) (A) (A) (A) (A) (A) (A) (A) (A)
                 (A) (A) (A) (A) (A) (A) (A) (A) (A) (A) (A) (A)
                 (A) (A) (A) (A) (A) (A) (A) (A) (A) (A) (A) (A)
                 (A) (A) (A) (A) (A) (A) (A) (A) (A) (A) (A) (A)
                 (A) (A) (A) (A) (A) (A) (A) (A) (A) (A) (A) (A)
                 (A) (A) (A) (A) (A) (A) (A) (A) (A) (A) (A) (A)
                 (A) (A) (A) (A) (A) (A) (A) (A) (A) (A) (A) (A)
                 (A) (A) (A) (A) (A) (A) (A) (A) (A) (A) (A) (A)
                 (A) (A) (A) (A) (A) (A) (A) (A) (A) (A) (A) (A)
                 (A) (A) (A) (A) (A) (A) (A)
 The electronic state is 1-A.
 Alpha  occ. eigenvalues --  -19.18737 -19.15532 -14.36885 -10.31987 -10.27043
 Alpha  occ. eigenvalues --  -10.24801 -10.21811 -10.21659 -10.21551 -10.21496
 Alpha  occ. eigenvalues --  -10.19757  -1.05183  -1.03743  -0.93845  -0.86258
 Alpha  occ. eigenvalues --   -0.77482  -0.75449  -0.74730  -0.64260  -0.62592
 Alpha  occ. eigenvalues --   -0.58044  -0.56200  -0.53254  -0.49545  -0.48487
 Alpha  occ. eigenvalues --   -0.47528  -0.45558  -0.44976  -0.44655  -0.43611
 Alpha  occ. eigenvalues --   -0.41746  -0.39865  -0.38605  -0.37231  -0.35825
 Alpha  occ. eigenvalues --   -0.31703  -0.29396  -0.27965  -0.27440  -0.25004
 Alpha virt. eigenvalues --   -0.05215  -0.03313  -0.02087  -0.00940  -0.00336
 Alpha virt. eigenvalues --    0.01912   0.02023   0.02613   0.04262   0.05117
 Alpha virt. eigenvalues --    0.05804   0.06276   0.06648   0.07282   0.08292
 Alpha virt. eigenvalues --    0.08838   0.09557   0.10170   0.11158   0.11605
 Alpha virt. eigenvalues --    0.11966   0.12324   0.13443   0.14008   0.14640
 Alpha virt. eigenvalues --    0.15075   0.15449   0.15746   0.16370   0.16998
 Alpha virt. eigenvalues --    0.17621   0.18540   0.19464   0.19616   0.20013
 Alpha virt. eigenvalues --    0.20568   0.21251   0.22141   0.22729   0.22955
 Alpha virt. eigenvalues --    0.23436   0.24338   0.24681   0.25770   0.25932
 Alpha virt. eigenvalues --    0.27090   0.27679   0.28457   0.29061   0.29980
 Alpha virt. eigenvalues --    0.30456   0.31294   0.31421   0.32373   0.33477
 Alpha virt. eigenvalues --    0.34202   0.34550   0.35289   0.35548   0.36535
 Alpha virt. eigenvalues --    0.36857   0.38041   0.39105   0.40864   0.42996
 Alpha virt. eigenvalues --    0.44914   0.57015   0.60057   0.60736   0.64783
 Alpha virt. eigenvalues --    0.65376   0.65812   0.68692   0.70658   0.70918
 Alpha virt. eigenvalues --    0.72207   0.74002   0.75472   0.76134   0.77986
 Alpha virt. eigenvalues --    0.78768   0.79750   0.81947   0.84407   0.85674
 Alpha virt. eigenvalues --    0.86528   0.89470   0.93590   0.94406   0.96909
 Alpha virt. eigenvalues --    0.98392   0.99139   1.00091   1.02344   1.02648
 Alpha virt. eigenvalues --    1.04817   1.05471   1.08077   1.08904   1.09651
 Alpha virt. eigenvalues --    1.10436   1.11930   1.16133   1.16942   1.18811
 Alpha virt. eigenvalues --    1.19575   1.21038   1.23635   1.26654   1.26806
 Alpha virt. eigenvalues --    1.28317   1.29312   1.32898   1.33601   1.35618
 Alpha virt. eigenvalues --    1.37061   1.41154   1.42374   1.43527   1.44439
 Alpha virt. eigenvalues --    1.45478   1.48449   1.50096   1.53472   1.55993
 Alpha virt. eigenvalues --    1.63553   1.66413   1.71437   1.72875   1.75811
 Alpha virt. eigenvalues --    1.78615   1.79925   1.81594   1.83698   1.84332
 Alpha virt. eigenvalues --    1.86934   1.87673   1.93450   1.95051   1.96423
 Alpha virt. eigenvalues --    1.97449   2.00000   2.01720   2.07476   2.08329
 Alpha virt. eigenvalues --    2.12451   2.12752   2.15195   2.19982   2.25216
 Alpha virt. eigenvalues --    2.26940   2.27481   2.28279   2.30903   2.34399
 Alpha virt. eigenvalues --    2.38219   2.40818   2.43711   2.44920   2.53249
 Alpha virt. eigenvalues --    2.56794   2.57706   2.60674   2.61925   2.63383
 Alpha virt. eigenvalues --    2.66807   2.74753   2.75706   2.78711   2.84788
 Alpha virt. eigenvalues --    2.85779   2.98996   3.03811   3.08655   3.09325
 Alpha virt. eigenvalues --    3.40437   4.11134   4.15166   4.22916   4.25079
 Alpha virt. eigenvalues --    4.28496   4.32126   4.34219   4.37975   4.48860
 Alpha virt. eigenvalues --    4.57413   4.76996
          Condensed to atoms (all electrons):
               1          2          3          4          5          6
     1  C    7.452596  -0.708157   0.419373  -1.434811   0.490464  -0.594680
     2  C   -0.708157   9.096579  -1.241419   0.922971  -1.104173  -0.982902
     3  C    0.419373  -1.241419   9.387815  -2.105823   0.299218  -0.921343
     4  C   -1.434811   0.922971  -2.105823  12.388674  -3.062850  -0.006307
     5  C    0.490464  -1.104173   0.299218  -3.062850   9.297251  -0.300015
     6  C   -0.594680  -0.982902  -0.921343  -0.006307  -0.300015   8.687619
     7  H   -0.033677   0.342380  -0.072777   0.038318  -0.027346   0.050321
     8  H   -0.002813  -0.099965   0.348996   0.019880   0.049205  -0.029927
     9  H   -0.014219  -0.014592   0.006467   0.045880   0.290247  -0.017869
    10  H   -0.021105   0.038463  -0.016597   0.025390  -0.038127   0.307786
    11  O    0.738201  -0.371706   0.050644  -0.059096   0.058400  -0.359801
    12  H    0.078163  -0.002340  -0.038687   0.006188  -0.031179  -0.017617
    13  N    0.080924  -0.051469   0.320070  -1.417456   0.767315   0.083518
    14  H    0.004834  -0.017574   0.024350   0.082925  -0.063970  -0.004383
    15  C   -0.058448   0.127756  -0.188590   0.456036  -0.323460  -0.112081
    16  C    0.027190  -0.068452   0.232167  -0.328149  -0.028797   0.055647
    17  H    0.006858   0.002332   0.033179  -0.024883   0.014970  -0.017913
    18  H    0.001727  -0.002407  -0.000690  -0.005312   0.010086  -0.001589
    19  H   -0.000531   0.001713  -0.008304  -0.008661   0.009596   0.003704
    20  O   -0.000128  -0.007310  -0.021407   0.009893   0.015409   0.005797
               7          8          9         10         11         12
     1  C   -0.033677  -0.002813  -0.014219  -0.021105   0.738201   0.078163
     2  C    0.342380  -0.099965  -0.014592   0.038463  -0.371706  -0.002340
     3  C   -0.072777   0.348996   0.006467  -0.016597   0.050644  -0.038687
     4  C    0.038318   0.019880   0.045880   0.025390  -0.059096   0.006188
     5  C   -0.027346   0.049205   0.290247  -0.038127   0.058400  -0.031179
     6  C    0.050321  -0.029927  -0.017869   0.307786  -0.359801  -0.017617
     7  H    0.514157  -0.004742   0.000015  -0.000155  -0.003799   0.000343
     8  H   -0.004742   0.506855  -0.000160   0.000014  -0.000617   0.000001
     9  H    0.000015  -0.000160   0.539443  -0.004833  -0.000622   0.000000
    10  H   -0.000155   0.000014  -0.004833   0.517667  -0.003622   0.000301
    11  O   -0.003799  -0.000617  -0.000622  -0.003622   8.485059   0.179599
    12  H    0.000343   0.000001   0.000000   0.000301   0.179599   0.327520
    13  N   -0.000989  -0.000514  -0.013806  -0.000866  -0.001228  -0.000013
    14  H    0.000003  -0.000072   0.002469  -0.000003  -0.000005   0.000000
    15  C   -0.000273   0.016791  -0.013717   0.001114   0.000699  -0.000160
    16  C   -0.000077  -0.005461   0.012402  -0.001059  -0.001171   0.000059
    17  H   -0.000004   0.000049  -0.001029   0.000006   0.000011   0.000000
    18  H    0.000000  -0.000001  -0.000196   0.000000  -0.000001   0.000000
    19  H    0.000000  -0.000004   0.000014   0.000000  -0.000001   0.000000
    20  O   -0.000006  -0.000814  -0.000211  -0.000003   0.000008   0.000000
              13         14         15         16         17         18
     1  C    0.080924   0.004834  -0.058448   0.027190   0.006858   0.001727
     2  C   -0.051469  -0.017574   0.127756  -0.068452   0.002332  -0.002407
     3  C    0.320070   0.024350  -0.188590   0.232167   0.033179  -0.000690
     4  C   -1.417456   0.082925   0.456036  -0.328149  -0.024883  -0.005312
     5  C    0.767315  -0.063970  -0.323460  -0.028797   0.014970   0.010086
     6  C    0.083518  -0.004383  -0.112081   0.055647  -0.017913  -0.001589
     7  H   -0.000989   0.000003  -0.000273  -0.000077  -0.000004   0.000000
     8  H   -0.000514  -0.000072   0.016791  -0.005461   0.000049  -0.000001
     9  H   -0.013806   0.002469  -0.013717   0.012402  -0.001029  -0.000196
    10  H   -0.000866  -0.000003   0.001114  -0.001059   0.000006   0.000000
    11  O   -0.001228  -0.000005   0.000699  -0.001171   0.000011  -0.000001
    12  H   -0.000013   0.000000  -0.000160   0.000059   0.000000   0.000000
    13  N    7.887236   0.226414  -0.190187  -0.060632   0.000153   0.004599
    14  H    0.226414   0.358595  -0.033284   0.005761  -0.000009  -0.000046
    15  C   -0.190187  -0.033284   5.798883  -0.186049  -0.070373  -0.019512
    16  C   -0.060632   0.005761  -0.186049   5.971690   0.378488   0.361087
    17  H    0.000153  -0.000009  -0.070373   0.378488   0.468219  -0.025907
    18  H    0.004599  -0.000046  -0.019512   0.361087  -0.025907   0.466703
    19  H    0.016399  -0.000116  -0.067616   0.406251  -0.024424  -0.019971
    20  O   -0.076893  -0.003308   0.482733  -0.135595   0.008606  -0.005615
              19         20
     1  C   -0.000531  -0.000128
     2  C    0.001713  -0.007310
     3  C   -0.008304  -0.021407
     4  C   -0.008661   0.009893
     5  C    0.009596   0.015409
     6  C    0.003704   0.005797
     7  H    0.000000  -0.000006
     8  H   -0.000004  -0.000814
     9  H    0.000014  -0.000211
    10  H    0.000000  -0.000003
    11  O   -0.000001   0.000008
    12  H    0.000000   0.000000
    13  N    0.016399  -0.076893
    14  H   -0.000116  -0.003308
    15  C   -0.067616   0.482733
    16  C    0.406251  -0.135595
    17  H   -0.024424   0.008606
    18  H   -0.019971  -0.005615
    19  H    0.451821  -0.003698
    20  O   -0.003698   8.131643
 Mulliken charges:
               1
     1  C   -0.431759
     2  C    0.140270
     3  C   -0.506645
     4  C    0.457193
     5  C   -0.322245
     6  C    0.172036
     7  H    0.198308
     8  H    0.203301
     9  H    0.184318
    10  H    0.195630
    11  O   -0.710953
    12  H    0.497824
    13  N   -0.572575
    14  H    0.417419
    15  C    0.379738
    16  C   -0.635301
    17  H    0.251670
    18  H    0.237044
    19  H    0.243827
    20  O   -0.399102
 Sum of Mulliken charges =   0.00000
 Mulliken charges with hydrogens summed into heavy atoms:
               1
     1  C   -0.431759
     2  C    0.338578
     3  C   -0.303344
     4  C    0.457193
     5  C   -0.137927
     6  C    0.367665
    11  O   -0.213129
    13  N   -0.155156
    15  C    0.379738
    16  C    0.097241
    20  O   -0.399102
 Electronic spatial extent (au):  <R**2>=           2043.0330
 Charge=              0.0000 electrons
 Dipole moment (field-independent basis, Debye):
    X=             -3.2475    Y=             -2.0702    Z=             -1.5315  Tot=              4.1445
 Quadrupole moment (field-independent basis, Debye-Ang):
   XX=            -78.7576   YY=            -60.8595   ZZ=            -64.9218
   XY=            -10.0918   XZ=              5.3391   YZ=              3.8008
 Traceless Quadrupole moment (field-independent basis, Debye-Ang):
   XX=            -10.5780   YY=              7.3201   ZZ=              3.2578
   XY=            -10.0918   XZ=              5.3391   YZ=              3.8008
 Octapole moment (field-independent basis, Debye-Ang**2):
  XXX=            -99.1303  YYY=             -0.2063  ZZZ=              0.2524  XYY=             -4.5679
  XXY=            -14.6813  XXZ=            -31.7191  XZZ=             12.1316  YZZ=             -4.9302
  YYZ=              2.1105  XYZ=             -0.2048
 Hexadecapole moment (field-independent basis, Debye-Ang**3):
 XXXX=          -2192.2069 YYYY=           -355.1193 ZZZZ=           -243.8491 XXXY=           -113.3864
 XXXZ=             96.6868 YYYX=             -4.4294 YYYZ=             15.2989 ZZZX=             -5.9018
 ZZZY=              4.8171 XXYY=           -396.3684 XXZZ=           -383.8225 YYZZ=           -109.1291
 XXYZ=             12.0064 YYXZ=              1.1789 ZZXY=             -9.0161
 N-N= 5.739225741027D+02 E-N=-2.347455639751D+03  KE= 5.104628612609D+02
 Calling FoFJK, ICntrl=      2127 FMM=F ISym2X=0 I1Cent= 0 IOpClX= 0 NMat=1 NMatS=1 NMatT=0.
 ***** Axes restored to original set *****
 -------------------------------------------------------------------
 Center     Atomic                   Forces (Hartrees/Bohr)
 Number     Number              X              Y              Z
 -------------------------------------------------------------------
      1        6          -0.004837077   -0.015216264    0.005600618
      2        6          -0.010082950    0.010334513   -0.000021037
      3        6          -0.014910612    0.001368315    0.001031455
      4        6           0.002602807    0.011577473    0.013954577
      5        6           0.008354636   -0.021777598    0.002210006
      6        6           0.011577399    0.001305763   -0.001233838
      7        1           0.005264273   -0.010180711   -0.001665690
      8        1           0.011421000    0.002244144   -0.000561052
      9        1          -0.007422627    0.009777058    0.001501886
     10        1          -0.011553234   -0.002595504    0.001167337
     11        8           0.010143805    0.026219738   -0.012105504
     12        1           0.000373051   -0.002850354    0.009620804
     13        7          -0.005716037   -0.028609483   -0.039703317
     14        1          -0.003197416    0.013835623    0.012827716
     15        6           0.047551571    0.041370441   -0.017866911
     16        6           0.025241504   -0.005735154    0.017214555
     17        1          -0.009295715   -0.010567389   -0.002875980
     18        1          -0.013641780    0.012480312    0.002489843
     19        1           0.006515609    0.003775866   -0.014052259
     20        8          -0.048388204   -0.036756789    0.022466791
 -------------------------------------------------------------------
 Cartesian Forces:  Max     0.048388204 RMS     0.016533688

 GradGradGradGradGradGradGradGradGradGradGradGradGradGradGradGradGradGrad
 Berny optimization.
 FormGI is forming the generalized inverse of G from B-inverse, IUseBI=4.
 Internal  Forces:  Max     0.064449417 RMS     0.011040254
 Search for a local minimum.
 Step number   1 out of a maximum of  101
 All quantities printed in internal units (Hartrees-Bohrs-Radians)
 Mixed Optimization -- RFO/linear search
 Second derivative matrix not updated -- first step.
 ITU=  0
     Eigenvalues ---    0.00237   0.00448   0.00766   0.00766   0.01295
     Eigenvalues ---    0.01668   0.01932   0.02070   0.02070   0.02070
     Eigenvalues ---    0.02070   0.02070   0.02070   0.02070   0.03937
     Eigenvalues ---    0.07243   0.07243   0.11845   0.16000   0.16000
     Eigenvalues ---    0.16000   0.16000   0.16000   0.16000   0.16000
     Eigenvalues ---    0.16000   0.22000   0.22981   0.23485   0.24000
     Eigenvalues ---    0.25000   0.25000   0.25000   0.25000   0.28519
     Eigenvalues ---    0.35740   0.35740   0.37230   0.37230   0.37230
     Eigenvalues ---    0.37230   0.37230   0.37230   0.37230   0.40989
     Eigenvalues ---    0.41268   0.41640   0.45389   0.45389   0.45389
     Eigenvalues ---    0.45389   0.47688   0.55473   0.80209
 RFO step:  Lambda=-3.28305031D-02 EMin= 2.36824241D-03
 Linear search not attempted -- first point.
 Iteration  1 RMS(Cart)=  0.24914918 RMS(Int)=  0.01433547
 Iteration  2 RMS(Cart)=  0.02973536 RMS(Int)=  0.00184899
 Iteration  3 RMS(Cart)=  0.00069452 RMS(Int)=  0.00182869
 Iteration  4 RMS(Cart)=  0.00000170 RMS(Int)=  0.00182869
 Iteration  5 RMS(Cart)=  0.00000001 RMS(Int)=  0.00182869
 Variable       Old X    -DE/DX   Delta X   Delta X   Delta X     New X
                                 (Linear)    (Quad)   (Total)
    R1        2.64826  -0.00659   0.00000  -0.01383  -0.01383   2.63443
    R2        2.64826  -0.00598   0.00000  -0.01244  -0.01243   2.63584
    R3        2.70231  -0.02553   0.00000  -0.05767  -0.05767   2.64464
    R4        2.64826  -0.00261   0.00000  -0.00551  -0.00551   2.64275
    R5        2.02201   0.01150   0.00000   0.02840   0.02840   2.05040
    R6        2.64826  -0.00553   0.00000  -0.01120  -0.01121   2.63705
    R7        2.02201   0.01155   0.00000   0.02850   0.02850   2.05051
    R8        2.64826   0.00127   0.00000   0.00290   0.00290   2.65116
    R9        2.77790  -0.01017   0.00000  -0.02606  -0.02606   2.75184
   R10        2.64826  -0.00412   0.00000  -0.00834  -0.00833   2.63994
   R11        2.02201   0.01234   0.00000   0.03046   0.03046   2.05247
   R12        2.02201   0.01178   0.00000   0.02908   0.02908   2.05108
   R13        1.81414   0.00996   0.00000   0.01695   0.01695   1.83109
   R14        1.88973   0.01777   0.00000   0.03486   0.03486   1.92458
   R15        2.77790  -0.00483   0.00000  -0.01237  -0.01237   2.76552
   R16        2.91018  -0.00813   0.00000  -0.02556  -0.02556   2.88461
   R17        2.37803  -0.06445   0.00000  -0.07719  -0.07719   2.30084
   R18        2.02201   0.01236   0.00000   0.03051   0.03051   2.05252
   R19        2.02201   0.01862   0.00000   0.04597   0.04597   2.06798
   R20        2.02201   0.01559   0.00000   0.03848   0.03848   2.06049
    A1        2.09440   0.00311   0.00000   0.01023   0.01015   2.10454
    A2        2.09440  -0.00128   0.00000  -0.00413  -0.00426   2.09014
    A3        2.09440  -0.00184   0.00000  -0.00611  -0.00624   2.08816
    A4        2.09440  -0.00069   0.00000  -0.00355  -0.00354   2.09085
    A5        2.09440  -0.00100   0.00000  -0.00522  -0.00523   2.08917
    A6        2.09440   0.00170   0.00000   0.00877   0.00876   2.10315
    A7        2.09440   0.00085   0.00000   0.00346   0.00345   2.09785
    A8        2.09440   0.00099   0.00000   0.00561   0.00561   2.10000
    A9        2.09440  -0.00184   0.00000  -0.00907  -0.00907   2.08533
   A10        2.09440  -0.00248   0.00000  -0.00791  -0.00806   2.08633
   A11        2.09440  -0.01003   0.00000  -0.03588  -0.03602   2.05838
   A12        2.09440   0.01250   0.00000   0.04379   0.04360   2.13799
   A13        2.09440   0.00170   0.00000   0.00764   0.00766   2.10206
   A14        2.09440  -0.00018   0.00000  -0.00035  -0.00037   2.09403
   A15        2.09440  -0.00152   0.00000  -0.00729  -0.00730   2.08709
   A16        2.09440  -0.00250   0.00000  -0.00987  -0.00984   2.08455
   A17        2.09440  -0.00045   0.00000  -0.00385  -0.00388   2.09052
   A18        2.09440   0.00294   0.00000   0.01372   0.01369   2.10808
   A19        1.91063  -0.00232   0.00000  -0.01205  -0.01205   1.89858
   A20        1.91063  -0.01082   0.00000   0.00490  -0.00568   1.90496
   A21        1.91063   0.05019   0.00000   0.20572   0.19823   2.10886
   A22        1.91063  -0.00914   0.00000   0.01601   0.00614   1.91678
   A23        2.09440   0.01802   0.00000   0.06371   0.06321   2.15760
   A24        2.09440  -0.01434   0.00000  -0.05069  -0.05117   2.04323
   A25        2.09440  -0.00368   0.00000  -0.01302  -0.01354   2.08085
   A26        1.91063   0.01232   0.00000   0.07025   0.07022   1.98086
   A27        1.91063  -0.00371   0.00000  -0.02392  -0.02419   1.88644
   A28        1.91063  -0.00387   0.00000  -0.02173  -0.02218   1.88845
   A29        1.91063  -0.00334   0.00000  -0.01394  -0.01382   1.89681
   A30        1.91063  -0.00152   0.00000   0.00150   0.00132   1.91195
   A31        1.91063   0.00011   0.00000  -0.01215  -0.01290   1.89773
    D1        0.00000   0.00045   0.00000   0.00864   0.00858   0.00858
    D2       -3.14159   0.00014   0.00000   0.00254   0.00263  -3.13896
    D3        3.14159  -0.00105   0.00000  -0.01991  -0.02002   3.12157
    D4        0.00000  -0.00136   0.00000  -0.02601  -0.02597  -0.02597
    D5        0.00000   0.00005   0.00000   0.00085   0.00076   0.00076
    D6       -3.14159  -0.00044   0.00000  -0.00812  -0.00803   3.13357
    D7       -3.14159   0.00156   0.00000   0.02940   0.02932  -3.11227
    D8        0.00000   0.00106   0.00000   0.02043   0.02054   0.02055
    D9        1.57080   0.00074   0.00000   0.01404   0.01393   1.58473
   D10       -1.57080  -0.00076   0.00000  -0.01451  -0.01440  -1.58520
   D11        0.00000  -0.00104   0.00000  -0.01999  -0.01990  -0.01990
   D12        3.14159  -0.00077   0.00000  -0.01485  -0.01461   3.12699
   D13        3.14159  -0.00072   0.00000  -0.01389  -0.01390   3.12769
   D14        0.00000  -0.00046   0.00000  -0.00875  -0.00861  -0.00861
   D15        0.00000   0.00111   0.00000   0.02185   0.02172   0.02173
   D16       -3.14159  -0.00055   0.00000  -0.01154  -0.01078   3.13081
   D17       -3.14159   0.00085   0.00000   0.01672   0.01647  -3.12512
   D18        0.00000  -0.00081   0.00000  -0.01668  -0.01603  -0.01603
   D19        0.00000  -0.00060   0.00000  -0.01236  -0.01236  -0.01236
   D20       -3.14159  -0.00039   0.00000  -0.00826  -0.00837   3.13322
   D21        3.14159   0.00106   0.00000   0.02103   0.02169  -3.11990
   D22        0.00000   0.00126   0.00000   0.02514   0.02568   0.02568
   D23       -2.61799   0.00346   0.00000  -0.00369  -0.00200  -2.61999
   D24        1.57080  -0.00947   0.00000  -0.15228  -0.15384   1.41696
   D25        0.52360   0.00180   0.00000  -0.03709  -0.03553   0.48807
   D26       -1.57080  -0.01112   0.00000  -0.18568  -0.18737  -1.75817
   D27        0.00000   0.00002   0.00000   0.00101   0.00115   0.00114
   D28        3.14159   0.00051   0.00000   0.00998   0.01002  -3.13158
   D29        3.14159  -0.00019   0.00000  -0.00309  -0.00283   3.13876
   D30        0.00000   0.00030   0.00000   0.00588   0.00604   0.00604
   D31        0.52360   0.00360   0.00000   0.01542   0.01745   0.54105
   D32       -2.61799   0.00135   0.00000  -0.04489  -0.04211  -2.66011
   D33       -1.57080  -0.00829   0.00000  -0.12636  -0.12914  -1.69994
   D34        1.57080  -0.01054   0.00000  -0.18667  -0.18871   1.38209
   D35       -0.52360  -0.00128   0.00000  -0.04788  -0.04799  -0.57159
   D36        1.57080  -0.00009   0.00000  -0.03658  -0.03718   1.53361
   D37       -2.61799  -0.00460   0.00000  -0.07942  -0.07941  -2.69741
   D38        2.61799   0.00097   0.00000   0.01243   0.01278   2.63078
   D39       -1.57080   0.00216   0.00000   0.02372   0.02359  -1.54720
   D40        0.52360  -0.00235   0.00000  -0.01912  -0.01864   0.50496
         Item               Value     Threshold  Converged?
 Maximum Force            0.064449     0.000450     NO 
 RMS     Force            0.011040     0.000300     NO 
 Maximum Displacement     0.974977     0.001800     NO 
 RMS     Displacement     0.267345     0.001200     NO 
 Predicted change in Energy=-2.017690D-02
 GradGradGradGradGradGradGradGradGradGradGradGradGradGradGradGradGradGrad

                          Input orientation:                          
 ---------------------------------------------------------------------
 Center     Atomic      Atomic             Coordinates (Angstroms)
 Number     Number       Type             X           Y           Z
 ---------------------------------------------------------------------
      1          6           0       -2.159792   -0.826063    0.161763
      2          6           0       -0.817054   -0.662983   -0.175753
      3          6           0       -0.261496    0.619777   -0.216185
      4          6           0       -1.052790    1.736309    0.056832
      5          6           0       -2.402362    1.560964    0.397621
      6          6           0       -2.958477    0.280507    0.450104
      7          1           0       -0.209477   -1.533588   -0.399764
      8          1           0        0.786009    0.755496   -0.464612
      9          1           0       -3.022794    2.424479    0.619123
     10          1           0       -4.004202    0.139019    0.704079
     11          8           0       -2.721018   -2.107976    0.178525
     12          1           0       -2.624526   -2.479151    1.068368
     13          7           0       -0.420579    3.047431    0.014251
     14          1           0       -0.894735    3.668274    0.667675
     15          6           0       -0.207537    3.736325   -1.259222
     16          6           0       -1.127535    3.582642   -2.467569
     17          1           0       -1.572874    2.595425   -2.549949
     18          1           0       -1.929088    4.322569   -2.380547
     19          1           0       -0.548449    3.797753   -3.366055
     20          8           0        0.725522    4.516320   -1.317887
 ---------------------------------------------------------------------
                    Distance matrix (angstroms):
                    1          2          3          4          5
     1  C    0.000000
     2  C    1.394080   0.000000
     3  C    2.415953   1.398482   0.000000
     4  C    2.793244   2.422038   1.395467   0.000000
     5  C    2.410885   2.790681   2.417829   1.402935   0.000000
     6  C    1.394824   2.422306   2.798706   2.430158   1.396994
     7  H    2.149334   1.085027   2.161803   3.407621   3.875671
     8  H    3.401679   2.159938   1.085081   2.148273   3.399696
     9  H    3.394108   3.876795   3.402860   2.161173   1.086120
    10  H    2.151125   3.402238   3.884053   3.417762   2.163733
    11  O    1.399485   2.416319   3.694006   4.192412   3.689264
    12  H    1.941806   2.848379   4.103334   4.611254   4.101438
    13  N    4.248597   3.736371   2.443749   1.456210   2.506795
    14  H    4.696315   4.413297   3.236592   2.032387   2.605114
    15  C    5.161965   4.571578   3.286899   2.538999   3.506363
    16  C    5.235993   4.834682   3.820644   3.128440   3.731176
    17  H    4.405046   4.101864   3.327063   2.793542   3.232078
    18  H    5.746736   5.563584   4.601738   3.660254   3.945715
    19  H    6.035031   5.490750   4.483698   4.027414   4.754521
    20  O    6.249436   5.523512   4.167852   3.575011   4.632575
                    6          7          8          9         10
     6  C    0.000000
     7  H    3.401503   0.000000
     8  H    3.883748   2.497019   0.000000
     9  H    2.151586   4.961772   4.297321   0.000000
    10  H    1.085386   4.291389   4.969105   2.488717   0.000000
    11  O    2.415573   2.640488   4.573001   4.563808   2.640408
    12  H    2.847716   2.980262   4.944160   4.940246   2.981782
    13  N    3.779784   4.604532   2.634033   2.743258   4.666592
    14  H    3.972824   5.354285   3.548415   2.465363   4.703802
    15  C    4.736259   5.339537   3.240969   3.629709   5.586576
    16  C    4.771715   5.594145   3.958061   3.802764   5.494825
    17  H    4.034732   4.850866   3.646683   3.489199   4.746998
    18  H    5.040882   6.416786   4.875097   3.714425   5.596705
    19  H    5.722091   6.110400   4.410723   4.887730   6.472600
    20  O    5.885555   6.190199   3.856881   4.709318   6.754214
                   11         12         13         14         15
    11  O    0.000000
    12  H    0.968969   0.000000
    13  N    5.647763   6.042488   0.000000
    14  H    6.077799   6.398716   1.018446   0.000000
    15  C    6.522312   7.063402   1.463453   2.046900   0.000000
    16  C    6.474885   7.175595   2.635463   3.145040   1.526472
    17  H    5.557408   6.320563   2.847317   3.458898   2.198130
    18  H    6.966198   7.657809   3.104292   3.284759   2.136537
    19  H    7.222308   7.960761   3.464938   4.050636   2.135121
    20  O    7.615719   8.115026   2.290365   2.699420   1.217551
                   16         17         18         19         20
    16  C    0.000000
    17  H    1.086145   0.000000
    18  H    1.094327   1.771613   0.000000
    19  H    1.090362   1.777939   1.775619   0.000000
    20  O    2.372202   3.238894   2.865962   2.516810   0.000000
 Stoichiometry    C8H9NO2
 Framework group  C1[X(C8H9NO2)]
 Deg. of freedom    54
 Full point group                 C1      NOp   1
 Largest Abelian subgroup         C1      NOp   1
 Largest concise Abelian subgroup C1      NOp   1
                         Standard orientation:                         
 ---------------------------------------------------------------------
 Center     Atomic      Atomic             Coordinates (Angstroms)
 Number     Number       Type             X           Y           Z
 ---------------------------------------------------------------------
      1          6           0       -2.501633    0.046148    0.150453
      2          6           0       -1.756260    1.223613    0.188569
      3          6           0       -0.406894    1.204088   -0.178288
      4          6           0        0.199772    0.006384   -0.558798
      5          6           0       -0.559911   -1.172486   -0.595882
      6          6           0       -1.910959   -1.155280   -0.240967
      7          1           0       -2.229608    2.149745    0.497608
      8          1           0        0.177748    2.118096   -0.164764
      9          1           0       -0.096899   -2.107205   -0.898499
     10          1           0       -2.501624   -2.065699   -0.258744
     11          8           0       -3.845506    0.061877    0.540730
     12          1           0       -4.394469    0.238154   -0.238030
     13          7           0        1.603489    0.045013   -0.944328
     14          1           0        1.782326   -0.688081   -1.628304
     15          6           0        2.659683    0.047011    0.068660
     16          6           0        2.530150   -0.638981    1.426140
     17          1           0        1.517964   -0.631949    1.820020
     18          1           0        2.855471   -1.677822    1.314214
     19          1           0        3.197721   -0.136544    2.126708
     20          8           0        3.713413    0.578528   -0.230635
 ---------------------------------------------------------------------
 Rotational constants (GHZ):           3.0538031           0.5389896           0.5199620
 Standard basis: 6-31+G(d) (6D, 7F)
 There are   227 symmetry adapted cartesian basis functions of A   symmetry.
 There are   227 symmetry adapted basis functions of A   symmetry.
   227 basis functions,   388 primitive gaussians,   227 cartesian basis functions
    40 alpha electrons       40 beta electrons
       nuclear repulsion energy       568.0289538780 Hartrees.
 NAtoms=   20 NActive=   20 NUniq=   20 SFac= 1.00D+00 NAtFMM=   60 NAOKFM=F Big=F
 Integral buffers will be    131072 words long.
 Raffenetti 2 integral format.
 Two-electron integral symmetry is turned on.
 One-electron integrals computed using PRISM.
 NBasis=   227 RedAO= T EigKep=  3.25D-06  NBF=   227
 NBsUse=   227 1.00D-06 EigRej= -1.00D+00 NBFU=   227
 Initial guess from the checkpoint file:  "C:\Users\no83wec\Documents\BA_projektmodul\2020_10_10\paraAcetaminoPhenol\paraAcetaminoPhenol.chk"
 B after Tr=     0.000000    0.000000    0.000000
         Rot=    0.993442    0.112960   -0.017559   -0.002104 Ang=  13.13 deg.
 ExpMin= 4.38D-02 ExpMax= 5.48D+03 ExpMxC= 8.25D+02 IAcc=3 IRadAn=         5 AccDes= 0.00D+00
 Harris functional with IExCor=  402 and IRadAn=       5 diagonalized for initial guess.
 HarFok:  IExCor=  402 AccDes= 0.00D+00 IRadAn=         5 IDoV= 1 UseB2=F ITyADJ=14
 ICtDFT=  3500011 ScaDFX=  1.000000  1.000000  1.000000  1.000000
 FoFCou: FMM=F IPFlag=           0 FMFlag=      100000 FMFlg1=           0
         NFxFlg=           0 DoJE=T BraDBF=F KetDBF=T FulRan=T
         wScrn=  0.000000 ICntrl=       500 IOpCl=  0 I1Cent=   200000004 NGrid=           0
         NMat0=    1 NMatS0=      1 NMatT0=    0 NMatD0=    1 NMtDS0=    0 NMtDT0=    0
 Petite list used in FoFCou.
 Requested convergence on RMS density matrix=1.00D-08 within 128 cycles.
 Requested convergence on MAX density matrix=1.00D-06.
 Requested convergence on             energy=1.00D-06.
 No special actions if energy rises.
 SCF Done:  E(RB3LYP) =  -515.470200337     A.U. after   14 cycles
            NFock= 14  Conv=0.56D-08     -V/T= 2.0097
 Calling FoFJK, ICntrl=      2127 FMM=F ISym2X=0 I1Cent= 0 IOpClX= 0 NMat=1 NMatS=1 NMatT=0.
 ***** Axes restored to original set *****
 -------------------------------------------------------------------
 Center     Atomic                   Forces (Hartrees/Bohr)
 Number     Number              X              Y              Z
 -------------------------------------------------------------------
      1        6          -0.002558406   -0.007476177    0.002221045
      2        6           0.001741098    0.003056340   -0.001538582
      3        6          -0.001034222   -0.004763355   -0.003049826
      4        6           0.003576412    0.015704414   -0.004003685
      5        6           0.001246427   -0.000762820    0.000135340
      6        6           0.001589913    0.002926248    0.000120728
      7        1          -0.000177906   -0.001075869   -0.000011185
      8        1           0.000871378    0.000582895    0.000545115
      9        1          -0.000693514    0.001277115   -0.000290393
     10        1          -0.000420721   -0.000595812    0.000072053
     11        8           0.001996081    0.005015955   -0.000717485
     12        1          -0.000579721   -0.001765813    0.000525410
     13        7          -0.020762779   -0.012182834   -0.012840203
     14        1           0.008376082    0.004997715    0.001468151
     15        6           0.012684331    0.004543805    0.007384503
     16        6           0.005514712   -0.008100388    0.007338772
     17        1          -0.003505374   -0.004263507    0.000704211
     18        1          -0.001720467    0.000784056    0.000659207
     19        1           0.000090112    0.001322421   -0.000807381
     20        8          -0.006233437    0.000775610    0.002084203
 -------------------------------------------------------------------
 Cartesian Forces:  Max     0.020762779 RMS     0.005402778

 GradGradGradGradGradGradGradGradGradGradGradGradGradGradGradGradGradGrad
 Berny optimization.
 Using GEDIIS/GDIIS optimizer.
 FormGI is forming the generalized inverse of G from B-inverse, IUseBI=4.
 Internal  Forces:  Max     0.020608291 RMS     0.004094104
 Search for a local minimum.
 Step number   2 out of a maximum of  101
 All quantities printed in internal units (Hartrees-Bohrs-Radians)
 Mixed Optimization -- RFO/linear search
 Update second derivatives using D2CorX and points    1    2
 DE= -1.45D-02 DEPred=-2.02D-02 R= 7.18D-01
 TightC=F SS=  1.41D+00  RLast= 4.58D-01 DXNew= 5.0454D-01 1.3728D+00
 Trust test= 7.18D-01 RLast= 4.58D-01 DXMaxT set to 5.05D-01
 ITU=  1  0
 Use linear search instead of GDIIS.
     Eigenvalues ---    0.00238   0.00458   0.00718   0.00792   0.01295
     Eigenvalues ---    0.01677   0.01936   0.02068   0.02070   0.02070
     Eigenvalues ---    0.02070   0.02070   0.02071   0.02072   0.02800
     Eigenvalues ---    0.06772   0.07484   0.13490   0.15846   0.15999
     Eigenvalues ---    0.16000   0.16000   0.16000   0.16000   0.16000
     Eigenvalues ---    0.16083   0.21990   0.22396   0.22986   0.24006
     Eigenvalues ---    0.24784   0.24974   0.24990   0.28182   0.31585
     Eigenvalues ---    0.33544   0.35776   0.37174   0.37230   0.37230
     Eigenvalues ---    0.37230   0.37230   0.37230   0.39594   0.41203
     Eigenvalues ---    0.41513   0.42225   0.45365   0.45389   0.45389
     Eigenvalues ---    0.46183   0.48292   0.55423   0.77463
 RFO step:  Lambda=-1.22806307D-02 EMin= 2.38153481D-03
 Quartic linear search produced a step of  0.03981.
 Iteration  1 RMS(Cart)=  0.16371607 RMS(Int)=  0.02359055
 Iteration  2 RMS(Cart)=  0.05223330 RMS(Int)=  0.00115454
 Iteration  3 RMS(Cart)=  0.00147556 RMS(Int)=  0.00041211
 Iteration  4 RMS(Cart)=  0.00000133 RMS(Int)=  0.00041211
 Iteration  5 RMS(Cart)=  0.00000000 RMS(Int)=  0.00041211
 Variable       Old X    -DE/DX   Delta X   Delta X   Delta X     New X
                                 (Linear)    (Quad)   (Total)
    R1        2.63443   0.00140  -0.00055   0.00073   0.00021   2.63464
    R2        2.63584   0.00194  -0.00049   0.00201   0.00154   2.63738
    R3        2.64464  -0.00355  -0.00230  -0.01770  -0.01999   2.62465
    R4        2.64275  -0.00074  -0.00022  -0.00237  -0.00259   2.64016
    R5        2.05040   0.00077   0.00113   0.00663   0.00776   2.05817
    R6        2.63705   0.00371  -0.00045   0.00593   0.00545   2.64250
    R7        2.05051   0.00079   0.00113   0.00671   0.00784   2.05835
    R8        2.65116  -0.00129   0.00012  -0.00231  -0.00222   2.64894
    R9        2.75184  -0.01350  -0.00104  -0.03991  -0.04094   2.71089
   R10        2.63994   0.00006  -0.00033  -0.00134  -0.00167   2.63826
   R11        2.05247   0.00135   0.00121   0.00846   0.00967   2.06214
   R12        2.05108   0.00050   0.00116   0.00607   0.00723   2.05831
   R13        1.83109   0.00110   0.00067   0.00467   0.00535   1.83643
   R14        1.92458   0.00009   0.00139   0.00591   0.00730   1.93188
   R15        2.76552  -0.01644  -0.00049  -0.04538  -0.04588   2.71965
   R16        2.88461  -0.00545  -0.00102  -0.02209  -0.02311   2.86150
   R17        2.30084  -0.00438  -0.00307  -0.01785  -0.02093   2.27991
   R18        2.05252   0.00526   0.00121   0.01837   0.01958   2.07210
   R19        2.06798   0.00184   0.00183   0.01226   0.01409   2.08207
   R20        2.06049   0.00097   0.00153   0.00883   0.01036   2.07085
    A1        2.10454  -0.00151   0.00040  -0.00415  -0.00388   2.10066
    A2        2.09014   0.00069  -0.00017   0.00160   0.00120   2.09134
    A3        2.08816   0.00079  -0.00025   0.00167   0.00119   2.08934
    A4        2.09085   0.00011  -0.00014   0.00008  -0.00004   2.09081
    A5        2.08917  -0.00085  -0.00021  -0.00576  -0.00599   2.08318
    A6        2.10315   0.00074   0.00035   0.00563   0.00595   2.10911
    A7        2.09785   0.00066   0.00014   0.00340   0.00351   2.10135
    A8        2.10000   0.00023   0.00022   0.00269   0.00292   2.10292
    A9        2.08533  -0.00088  -0.00036  -0.00606  -0.00642   2.07891
   A10        2.08633  -0.00066  -0.00032  -0.00403  -0.00440   2.08193
   A11        2.05838   0.00152  -0.00143  -0.00020  -0.00161   2.05677
   A12        2.13799  -0.00085   0.00174   0.00426   0.00601   2.14401
   A13        2.10206  -0.00009   0.00031   0.00041   0.00070   2.10275
   A14        2.09403  -0.00024  -0.00001  -0.00121  -0.00122   2.09281
   A15        2.08709   0.00033  -0.00029   0.00081   0.00053   2.08762
   A16        2.08455   0.00149  -0.00039   0.00426   0.00388   2.08843
   A17        2.09052  -0.00130  -0.00015  -0.00677  -0.00696   2.08356
   A18        2.10808  -0.00020   0.00054   0.00243   0.00294   2.11102
   A19        1.89858   0.00290  -0.00048   0.01439   0.01391   1.91249
   A20        1.90496   0.00693  -0.00023   0.05319   0.05095   1.95590
   A21        2.10886  -0.00958   0.00789   0.00366   0.00976   2.11862
   A22        1.91678   0.00173   0.00024   0.02087   0.01865   1.93542
   A23        2.15760  -0.02061   0.00252  -0.06618  -0.06373   2.09387
   A24        2.04323   0.00981  -0.00204   0.02776   0.02566   2.06889
   A25        2.08085   0.01078  -0.00054   0.03765   0.03703   2.11789
   A26        1.98086  -0.00012   0.00280   0.01165   0.01437   1.99522
   A27        1.88644  -0.00078  -0.00096  -0.01239  -0.01335   1.87309
   A28        1.88845   0.00080  -0.00088   0.00414   0.00312   1.89158
   A29        1.89681  -0.00074  -0.00055  -0.01271  -0.01322   1.88359
   A30        1.91195   0.00098   0.00005   0.01263   0.01249   1.92444
   A31        1.89773  -0.00016  -0.00051  -0.00417  -0.00474   1.89299
    D1        0.00858   0.00052   0.00034   0.01770   0.01802   0.02660
    D2       -3.13896   0.00027   0.00010   0.00917   0.00927  -3.12969
    D3        3.12157  -0.00044  -0.00080  -0.01801  -0.01881   3.10276
    D4       -0.02597  -0.00069  -0.00103  -0.02655  -0.02755  -0.05353
    D5        0.00076  -0.00018   0.00003  -0.00597  -0.00594  -0.00518
    D6        3.13357  -0.00048  -0.00032  -0.01670  -0.01699   3.11658
    D7       -3.11227   0.00078   0.00117   0.02971   0.03085  -3.08142
    D8        0.02055   0.00048   0.00082   0.01897   0.01980   0.04034
    D9        1.58473   0.00046   0.00055   0.01633   0.01692   1.60164
   D10       -1.58520  -0.00053  -0.00057  -0.01915  -0.01975  -1.60495
   D11       -0.01990  -0.00028  -0.00079  -0.01244  -0.01324  -0.03314
   D12        3.12699  -0.00060  -0.00058  -0.02062  -0.02123   3.10576
   D13        3.12769  -0.00003  -0.00055  -0.00380  -0.00433   3.12336
   D14       -0.00861  -0.00034  -0.00034  -0.01197  -0.01231  -0.02092
   D15        0.02173  -0.00028   0.00086  -0.00444  -0.00358   0.01814
   D16        3.13081  -0.00006  -0.00043  -0.00313  -0.00353   3.12728
   D17       -3.12512   0.00004   0.00066   0.00369   0.00432  -3.12080
   D18       -0.01603   0.00025  -0.00064   0.00500   0.00437  -0.01166
   D19       -0.01236   0.00063  -0.00049   0.01630   0.01580   0.00344
   D20        3.13322   0.00051  -0.00033   0.01348   0.01314  -3.13683
   D21       -3.11990   0.00036   0.00086   0.01502   0.01590  -3.10400
   D22        0.02568   0.00023   0.00102   0.01220   0.01324   0.03892
   D23       -2.61999  -0.00119  -0.00008  -0.05353  -0.05294  -2.67293
   D24        1.41696  -0.00216  -0.00612  -0.14338  -0.15017   1.26679
   D25        0.48807  -0.00096  -0.00141  -0.05235  -0.05310   0.43497
   D26       -1.75817  -0.00193  -0.00746  -0.14219  -0.15033  -1.90850
   D27        0.00114  -0.00039   0.00005  -0.01108  -0.01104  -0.00990
   D28       -3.13158  -0.00007   0.00040  -0.00018   0.00024  -3.13134
   D29        3.13876  -0.00027  -0.00011  -0.00827  -0.00839   3.13037
   D30        0.00604   0.00005   0.00024   0.00263   0.00289   0.00893
   D31        0.54105  -0.00387   0.00069  -0.22724  -0.22651   0.31455
   D32       -2.66011  -0.00382  -0.00168  -0.24101  -0.24252  -2.90262
   D33       -1.69994  -0.00709  -0.00514  -0.33187  -0.33718  -2.03712
   D34        1.38209  -0.00705  -0.00751  -0.34564  -0.35319   1.02890
   D35       -0.57159   0.00102  -0.00191  -0.00371  -0.00557  -0.57716
   D36        1.53361  -0.00054  -0.00148  -0.02099  -0.02255   1.51106
   D37       -2.69741  -0.00073  -0.00316  -0.03040  -0.03365  -2.73105
   D38        2.63078   0.00103   0.00051   0.01075   0.01139   2.64217
   D39       -1.54720  -0.00052   0.00094  -0.00653  -0.00559  -1.55279
   D40        0.50496  -0.00071  -0.00074  -0.01593  -0.01668   0.48828
         Item               Value     Threshold  Converged?
 Maximum Force            0.020608     0.000450     NO 
 RMS     Force            0.004094     0.000300     NO 
 Maximum Displacement     0.787005     0.001800     NO 
 RMS     Displacement     0.209572     0.001200     NO 
 Predicted change in Energy=-8.236022D-03
 GradGradGradGradGradGradGradGradGradGradGradGradGradGradGradGradGradGrad

                          Input orientation:                          
 ---------------------------------------------------------------------
 Center     Atomic      Atomic             Coordinates (Angstroms)
 Number     Number       Type             X           Y           Z
 ---------------------------------------------------------------------
      1          6           0       -2.192990   -0.770989    0.146085
      2          6           0       -0.897234   -0.575856   -0.330045
      3          6           0       -0.351422    0.710066   -0.350407
      4          6           0       -1.110721    1.807726    0.066723
      5          6           0       -2.418774    1.601665    0.526582
      6          6           0       -2.958774    0.315042    0.572612
      7          1           0       -0.318156   -1.433683   -0.669188
      8          1           0        0.671343    0.871015   -0.688746
      9          1           0       -3.021921    2.451479    0.850362
     10          1           0       -3.977496    0.147132    0.919589
     11          8           0       -2.753128   -2.041736    0.123607
     12          1           0       -2.576176   -2.490567    0.967191
     13          7           0       -0.490015    3.100759    0.040173
     14          1           0       -0.898956    3.737250    0.727750
     15          6           0       -0.231503    3.782788   -1.200485
     16          6           0       -0.956423    3.360575   -2.461104
     17          1           0       -1.177791    2.288101   -2.516994
     18          1           0       -1.913308    3.906104   -2.487560
     19          1           0       -0.356709    3.669801   -3.324583
     20          8           0        0.506903    4.736858   -1.190764
 ---------------------------------------------------------------------
                    Distance matrix (angstroms):
                    1          2          3          4          5
     1  C    0.000000
     2  C    1.394189   0.000000
     3  C    2.414830   1.397112   0.000000
     4  C    2.797745   2.425792   1.398352   0.000000
     5  C    2.413555   2.791146   2.416196   1.401761   0.000000
     6  C    1.395641   2.420421   2.793974   2.428854   1.396109
     7  H    2.149148   1.089135   2.167577   3.417083   3.880181
     8  H    3.405514   2.163916   1.089232   2.150328   3.399955
     9  H    3.401093   3.882321   3.406747   2.163606   1.091239
    10  H    2.150748   3.401811   3.883065   3.421016   2.167887
    11  O    1.388904   2.408100   3.683109   4.185581   3.680836
    12  H    1.943706   2.857934   4.114565   4.629657   4.118893
    13  N    4.231049   3.717578   2.426350   1.434543   2.490780
    14  H    4.726212   4.440925   3.259763   2.050577   2.628885
    15  C    5.137857   4.494290   3.190397   2.505935   3.538956
    16  C    5.039479   4.476651   3.441840   2.970699   3.762778
    17  H    4.180986   3.614375   2.804849   2.628849   3.357765
    18  H    5.374897   5.076933   4.149888   3.401720   3.827661
    19  H    5.927738   5.223507   4.195924   3.941676   4.833298
    20  O    6.277975   5.562137   4.202139   3.574604   4.619339
                    6          7          8          9         10
     6  C    0.000000
     7  H    3.401907   0.000000
     8  H    3.883024   2.508211   0.000000
     9  H    2.155341   4.971304   4.301966   0.000000
    10  H    1.089211   4.291149   4.972167   2.495582   0.000000
    11  O    2.407965   2.631984   4.568482   4.559540   2.631313
    12  H    2.858936   2.982179   4.958703   4.963482   2.987210
    13  N    3.760117   4.592809   2.617601   2.736515   4.654009
    14  H    3.997303   5.387700   3.561966   2.484999   4.733197
    15  C    4.754697   5.244174   3.091185   3.710093   5.634285
    16  C    4.742163   5.157835   3.462482   4.007311   5.557173
    17  H    4.075601   4.243234   2.961404   3.842732   4.922620
    18  H    4.832534   5.862109   4.373547   3.806137   5.477172
    19  H    5.763096   5.753100   3.979664   5.100767   6.597900
    20  O    5.888368   6.247267   3.901769   4.673516   6.754924
                   11         12         13         14         15
    11  O    0.000000
    12  H    0.971799   0.000000
    13  N    5.619065   6.039400   0.000000
    14  H    6.099149   6.454154   1.022308   0.000000
    15  C    6.483586   7.039268   1.439175   2.040994   0.000000
    16  C    6.252506   6.972278   2.557621   3.211537   1.514243
    17  H    5.310550   6.077062   2.769937   3.564567   2.205163
    18  H    6.549832   7.300144   3.010611   3.375742   2.121375
    19  H    7.089040   7.829143   3.415137   4.089007   2.130782
    20  O    7.635752   8.148486   2.277251   2.579990   1.206478
                   16         17         18         19         20
    16  C    0.000000
    17  H    1.096507   0.000000
    18  H    1.101785   1.777579   0.000000
    19  H    1.095844   1.798742   1.783100   0.000000
    20  O    2.376814   3.254765   2.868667   2.537247   0.000000
 Stoichiometry    C8H9NO2
 Framework group  C1[X(C8H9NO2)]
 Deg. of freedom    54
 Full point group                 C1      NOp   1
 Largest Abelian subgroup         C1      NOp   1
 Largest concise Abelian subgroup C1      NOp   1
                         Standard orientation:                         
 ---------------------------------------------------------------------
 Center     Atomic      Atomic             Coordinates (Angstroms)
 Number     Number       Type             X           Y           Z
 ---------------------------------------------------------------------
      1          6           0       -2.484512    0.112981    0.071046
      2          6           0       -1.686623    1.160931   -0.386051
      3          6           0       -0.336643    0.934631   -0.665809
      4          6           0        0.228421   -0.326567   -0.452567
      5          6           0       -0.579409   -1.368118    0.024419
      6          6           0       -1.934750   -1.152563    0.280749
      7          1           0       -2.130137    2.144692   -0.533442
      8          1           0        0.289086    1.736745   -1.055040
      9          1           0       -0.148018   -2.355205    0.198672
     10          1           0       -2.567421   -1.953760    0.660474
     11          8           0       -3.814949    0.347586    0.393465
     12          1           0       -4.372483    0.184232   -0.385551
     13          7           0        1.615047   -0.502762   -0.775274
     14          1           0        1.833709   -1.472616   -1.013357
     15          6           0        2.653084    0.072365    0.038933
     16          6           0        2.344871    0.521148    1.451920
     17          1           0        1.328330    0.907876    1.591252
     18          1           0        2.467189   -0.355174    2.108447
     19          1           0        3.082044    1.278090    1.742592
     20          8           0        3.775666    0.111866   -0.401336
 ---------------------------------------------------------------------
 Rotational constants (GHZ):           3.1644245           0.5488202           0.5286511
 Standard basis: 6-31+G(d) (6D, 7F)
 There are   227 symmetry adapted cartesian basis functions of A   symmetry.
 There are   227 symmetry adapted basis functions of A   symmetry.
   227 basis functions,   388 primitive gaussians,   227 cartesian basis functions
    40 alpha electrons       40 beta electrons
       nuclear repulsion energy       572.2131261198 Hartrees.
 NAtoms=   20 NActive=   20 NUniq=   20 SFac= 1.00D+00 NAtFMM=   60 NAOKFM=F Big=F
 Integral buffers will be    131072 words long.
 Raffenetti 2 integral format.
 Two-electron integral symmetry is turned on.
 One-electron integrals computed using PRISM.
 NBasis=   227 RedAO= T EigKep=  3.27D-06  NBF=   227
 NBsUse=   227 1.00D-06 EigRej= -1.00D+00 NBFU=   227
 Initial guess from the checkpoint file:  "C:\Users\no83wec\Documents\BA_projektmodul\2020_10_10\paraAcetaminoPhenol\paraAcetaminoPhenol.chk"
 B after Tr=     0.000000    0.000000    0.000000
         Rot=    0.958356    0.285445    0.007180    0.004863 Ang=  33.19 deg.
 ExpMin= 4.38D-02 ExpMax= 5.48D+03 ExpMxC= 8.25D+02 IAcc=3 IRadAn=         5 AccDes= 0.00D+00
 Harris functional with IExCor=  402 and IRadAn=       5 diagonalized for initial guess.
 HarFok:  IExCor=  402 AccDes= 0.00D+00 IRadAn=         5 IDoV= 1 UseB2=F ITyADJ=14
 ICtDFT=  3500011 ScaDFX=  1.000000  1.000000  1.000000  1.000000
 FoFCou: FMM=F IPFlag=           0 FMFlag=      100000 FMFlg1=           0
         NFxFlg=           0 DoJE=T BraDBF=F KetDBF=T FulRan=T
         wScrn=  0.000000 ICntrl=       500 IOpCl=  0 I1Cent=   200000004 NGrid=           0
         NMat0=    1 NMatS0=      1 NMatT0=    0 NMatD0=    1 NMtDS0=    0 NMtDT0=    0
 Petite list used in FoFCou.
 Requested convergence on RMS density matrix=1.00D-08 within 128 cycles.
 Requested convergence on MAX density matrix=1.00D-06.
 Requested convergence on             energy=1.00D-06.
 No special actions if energy rises.
 SCF Done:  E(RB3LYP) =  -515.480414667     A.U. after   14 cycles
            NFock= 14  Conv=0.77D-08     -V/T= 2.0096
 Calling FoFJK, ICntrl=      2127 FMM=F ISym2X=0 I1Cent= 0 IOpClX= 0 NMat=1 NMatS=1 NMatT=0.
 ***** Axes restored to original set *****
 -------------------------------------------------------------------
 Center     Atomic                   Forces (Hartrees/Bohr)
 Number     Number              X              Y              Z
 -------------------------------------------------------------------
      1        6          -0.001772144   -0.000888491   -0.000167795
      2        6           0.003623351    0.000836769   -0.001533936
      3        6           0.001125313   -0.004079942   -0.001759020
      4        6           0.003414832    0.005082510   -0.000345740
      5        6          -0.000804931    0.003293725    0.002325965
      6        6          -0.000970666    0.001062962    0.000356187
      7        1          -0.001113847    0.001495318    0.000584871
      8        1          -0.001553547   -0.000608281    0.000957531
      9        1           0.001228160   -0.001394679   -0.000888587
     10        1           0.001952410    0.000373348   -0.000586866
     11        8          -0.000121486   -0.002779155    0.002491041
     12        1          -0.000794235   -0.000149370   -0.001780378
     13        7          -0.019132221   -0.002527727   -0.009285280
     14        1           0.011321965    0.000156180   -0.000712865
     15        6          -0.005393091   -0.011221524    0.011332878
     16        6           0.001608943   -0.006045714   -0.003021398
     17        1           0.000365332    0.003185272    0.000214409
     18        1           0.001945968   -0.001598994   -0.000008186
     19        1          -0.002261320   -0.000829679    0.001303627
     20        8           0.007331214    0.016637472    0.000523541
 -------------------------------------------------------------------
 Cartesian Forces:  Max     0.019132221 RMS     0.004840391

 GradGradGradGradGradGradGradGradGradGradGradGradGradGradGradGradGradGrad
 Berny optimization.
 Using GEDIIS/GDIIS optimizer.
 FormGI is forming the generalized inverse of G from B-inverse, IUseBI=4.
 Internal  Forces:  Max     0.017647954 RMS     0.002913374
 Search for a local minimum.
 Step number   3 out of a maximum of  101
 All quantities printed in internal units (Hartrees-Bohrs-Radians)
 Mixed Optimization -- RFO/linear search
 Update second derivatives using D2CorX and points    2    3
 DE= -1.02D-02 DEPred=-8.24D-03 R= 1.24D+00
 TightC=F SS=  1.41D+00  RLast= 6.51D-01 DXNew= 8.4853D-01 1.9530D+00
 Trust test= 1.24D+00 RLast= 6.51D-01 DXMaxT set to 8.49D-01
 ITU=  1  1  0
 Use linear search instead of GDIIS.
     Eigenvalues ---    0.00237   0.00301   0.00472   0.00830   0.01295
     Eigenvalues ---    0.01674   0.01970   0.02053   0.02070   0.02070
     Eigenvalues ---    0.02071   0.02071   0.02072   0.02079   0.02199
     Eigenvalues ---    0.06655   0.07556   0.13704   0.15800   0.15997
     Eigenvalues ---    0.15999   0.16000   0.16000   0.16000   0.16041
[...]
 .00198159,0.29425154,-0.00115250,-0.00477757,-0.00090495,-0.02642842,0
 .00058015,0.01339124,-0.03010098,-0.06226152,0.01158774,0.02286115,0.0
 0686458,-0.01116053,0.00176627,-0.00419266,-0.00212309,-0.00001037,-0.
 00098798,0.00004356,0.00047973,0.00101218,0.00034027,0.03279412,0.0622
 7642,0.00193944,-0.00029196,0.00619878,0.00176664,-0.00008579,0.001836
 41,0.11903340,0.00977950,-0.09359799,0.01069225,0.00358567,-0.00061809
 ,0.00276622,-0.00273056,0.00360913,-0.00059046,-0.00041037,-0.00054550
 ,-0.00199957,0.00068288,-0.00297880,-0.13129106,-0.01295617,0.08950382
 ,0.00100456,-0.00301349,0.00329155,-0.00038934,-0.00077845,-0.00029066
 ,-0.00329693,-0.00226738,0.00423881,-0.00914905,0.02350063,0.00984277,
 -0.12485539,0.11027075,0.05854445,0.00996640,-0.01111317,-0.00476853,-
 0.00009418,0.00012178,-0.00030482,-0.00044399,0.00118930,0.00062069,0.
 12673364,-0.00364820,-0.00230699,0.00095100,-0.00060988,-0.00012033,0.
 00041427,-0.00129732,0.00098143,0.00018032,-0.00372699,0.00478297,0.00
 211877,0.11083692,-0.23462120,-0.07954737,0.01544682,-0.01811667,-0.01
 073695,0.00011461,-0.00003555,0.00000061,-0.00019382,0.00036426,0.0000
 9053,-0.11804373,0.24792494,0.00294338,0.00061436,0.00607008,-0.000014
 75,0.00069161,-0.00047873,0.00459572,0.00077714,0.00265055,0.00626635,
 -0.01402995,-0.00016468,0.05919308,-0.07815957,-0.07626304,-0.00200760
 ,0.00330965,0.00471396,-0.00029474,-0.00000841,-0.00049681,0.00047927,
 -0.00070789,-0.00006232,-0.06602150,0.08623766,0.06930864,-0.01021158,
 -0.00523830,0.00774148,0.00078614,0.00251655,0.00240583,0.00039297,0.0
 0038814,-0.00046378,0.00322141,-0.00179884,0.00209855,-0.00603297,0.00
 002555,0.00448950,-0.27221837,-0.03231210,0.12594348,-0.00047341,-0.00
 010452,0.00028059,-0.00019912,0.00001629,-0.00024634,-0.00032071,0.000
 05294,-0.00224419,0.28535848,0.02272484,0.00799727,-0.01210733,0.00169
 510,-0.00414614,-0.00199601,-0.00003030,-0.00127234,-0.00006602,-0.000
 76901,-0.00417338,-0.00081539,-0.02651113,0.00095178,0.01403537,-0.034
 01247,-0.06376232,0.01489270,0.00128140,0.00026961,-0.00067181,0.00000
 586,0.00012071,0.00011102,0.00056826,0.00103928,0.00025205,0.03704268,
 0.06150569,0.01168194,0.00302222,-0.00087211,0.00207164,-0.00270772,0.
 00330821,-0.00055357,-0.00030948,-0.00032338,0.00202356,-0.00037658,0.
 00604720,0.00150107,0.00002017,0.00150104,0.12561153,0.01424984,-0.101
 15614,0.00047972,0.00008023,-0.00021295,-0.00024403,0.00009668,-0.0005
 1191,-0.00212053,0.00049769,-0.00315368,-0.13814693,-0.01558855,0.0976
 0849,-0.12901342,-0.05548311,0.04264515,-0.01780909,-0.04691957,0.0083
 0013,-0.00200120,0.00749527,0.00563585,0.00328201,-0.00225479,-0.00245
 543,-0.00540632,0.00037755,0.00598479,0.01680103,0.01759732,-0.0037392
 3,0.00118200,0.00029318,-0.00268985,-0.00063980,-0.00163128,0.00020877
 ,0.00055237,0.00092148,-0.00007435,0.00021594,-0.00025505,-0.00203108,
 0.32831098,-0.10230325,-0.25856180,0.02852152,-0.01336222,-0.01776240,
 0.00440923,0.00052765,-0.00062057,-0.00258391,-0.00327263,0.00079526,0
 .00241532,0.00583897,0.00400042,-0.00240388,-0.01513857,-0.05710393,0.
 00051274,0.00107399,0.00366496,0.00038162,-0.00028399,-0.00051546,0.00
 008039,-0.00044375,-0.00131497,0.00002648,-0.00035693,0.00189900,0.000
 75809,-0.07734644,0.58729958,0.03644691,0.00317406,-0.05860577,0.01275
 270,0.02281533,0.00401743,0.00507540,-0.00575701,0.00400247,-0.0029351
 8,0.00141119,0.00031530,0.00633837,0.00010438,0.00087470,-0.00764025,-
 0.01776543,0.00819227,-0.00253837,0.00064783,-0.00227553,0.00027218,0.
 00085928,-0.00000506,-0.00028541,-0.00066256,0.00026423,-0.00191003,0.
 00081289,-0.00205067,-0.17526457,0.11170500,0.13425510,0.00911486,-0.0
 1790222,-0.00919878,0.00149441,-0.00377368,-0.00152653,-0.00064062,0.0
 0016588,-0.00015930,-0.00020443,0.00002977,0.00029207,0.00118762,0.000
 03568,0.00034033,-0.00047153,-0.00395876,0.00112748,-0.00074115,0.0009
 5755,0.00079090,0.00000627,-0.00002003,-0.00001700,-0.00013187,-0.0001
 3402,-0.00007854,0.00000659,-0.00025123,-0.00039433,-0.19471749,0.2065
 5623,0.12996716,0.18520771,0.02624910,-0.03451395,-0.01819271,0.001893
 02,0.00502224,-0.00034259,0.00037637,-0.00107004,-0.00018596,-0.000513
 86,0.00034188,0.00023346,0.00185734,-0.00035058,-0.00135904,-0.0053543
 2,-0.00426799,0.00214835,-0.00151968,0.00004788,0.00076564,0.00015697,
 0.00027664,-0.00005293,-0.00027663,-0.00037734,0.00012677,-0.00001208,
 0.00022928,0.00013452,0.15878969,-0.25804954,-0.11807859,-0.18172298,0
 .29223525,-0.00363526,0.00601654,-0.00081980,-0.00090853,0.00266747,0.
 00015892,-0.00004669,-0.00003717,-0.00067564,0.00019841,-0.00002178,0.
 00005700,0.00055408,-0.00023881,0.00133920,0.00095397,0.00124399,0.002
 20389,0.00049633,-0.00058190,0.00021535,0.00002167,0.00003847,-0.00000
 713,-0.00011264,0.00005208,-0.00017980,-0.00036117,0.00024806,-0.00040
 638,0.12398970,-0.14413918,-0.08876439,-0.12115468,0.13469494,0.086956
 42,0.00255434,-0.00027017,-0.00131647,-0.00206284,-0.00079789,0.003400
 44,0.01017767,0.01004462,-0.00252120,-0.08155588,-0.07125797,0.0197004
 9,-0.01548583,-0.03963426,0.00611579,-0.00147283,0.00426815,0.00539366
 ,0.00022723,0.00044569,-0.00014192,0.00040756,-0.00025726,-0.00268279,
 0.00175356,0.00024019,-0.00334115,-0.00045966,-0.00128697,0.00009073,-
 0.00061983,-0.00144336,-0.00034466,-0.00012086,0.00008011,-0.00004269,
 0.15953047,0.00168335,0.00149767,-0.00093767,0.00169973,-0.00062553,-0
 .00435213,-0.01592446,-0.04110530,-0.00075257,-0.07232629,-0.22869654,
 0.00496325,-0.01573366,-0.01874317,0.00483038,0.00010065,0.00260025,0.
 00110656,-0.00056859,-0.00152380,0.00017071,0.00001363,0.00231424,0.00
 213640,0.00126565,0.00133779,0.00072949,-0.00017341,-0.00051801,0.0002
 2806,-0.00165855,-0.00375584,0.00080108,0.00004759,0.00052093,0.000044
 82,0.22040029,0.63572284,-0.00034056,-0.00283935,-0.00159634,0.0047351
 3,-0.00227376,0.00613977,-0.00600603,-0.00945703,0.00493342,0.01636060
 ,-0.01716472,-0.10217296,0.00900679,0.02489490,0.00224307,0.00563535,0
 .00051357,0.00265054,-0.00002071,-0.00018174,0.00057357,-0.00288911,0.
 00068775,-0.00346057,-0.00298468,0.00044876,-0.00170778,0.00065414,0.0
 0127955,0.00010869,0.00071582,0.00337316,-0.00040954,0.00000544,-0.000
 26065,-0.00014804,-0.04846457,0.06144024,0.71304162,0.00049343,0.00041
 973,-0.00043922,-0.00084031,0.00049995,0.00059607,0.00006475,0.0010186
 0,-0.00085821,-0.00226285,-0.00155666,-0.00999290,0.00076016,-0.000990
 47,0.00014104,0.00054765,-0.00006873,0.00045472,0.00007260,0.00009467,
 0.00009527,0.00006787,0.00003041,0.00015016,-0.00126620,0.00001050,0.0
 0023271,0.00001363,0.00004013,0.00003781,-0.00058419,-0.00116033,0.000
 18671,-0.00005312,0.00011214,0.00006111,-0.02510030,-0.04605710,-0.029
 51658,0.02336469,-0.00016443,0.00050166,0.00003581,0.00110714,-0.00094
 346,0.00055679,-0.00344852,-0.00218677,0.00036839,-0.00132457,-0.01808
 461,-0.02251094,0.00175047,0.00132825,-0.00042099,0.00008371,-0.001043
 51,0.00047638,-0.00007116,-0.00032065,0.00014646,-0.00013214,0.0001431
 7,-0.00056400,-0.00066908,0.00031414,-0.00034545,-0.00000084,-0.000015
 80,0.00002415,-0.00010739,-0.00013291,-0.00006203,-0.00000487,0.000028
 37,-0.00001535,-0.04158991,-0.15614602,-0.16506726,0.04201365,0.163464
 40,-0.00052138,-0.00000740,0.00049620,0.00013971,0.00067169,-0.0003381
 7,0.00056818,0.00119405,-0.00009168,0.00063365,0.00484547,0.01028313,0
 .00015134,0.00110576,0.00030233,-0.00002318,-0.00039672,-0.00017385,0.
 00001103,0.00018085,-0.00004279,0.00000213,-0.00008028,0.00009038,-0.0
 0000154,-0.00026119,-0.00003227,0.00005290,0.00005584,-0.00002628,0.00
 024209,0.00047987,-0.00014271,-0.00000902,-0.00006876,-0.00001135,-0.0
 3061231,-0.16043135,-0.32964858,0.03377756,0.16913248,0.34754727,-0.00
 098336,-0.00189722,0.00028375,0.00127263,0.00030664,0.00058269,0.00222
 061,0.00322070,0.00012118,-0.01813201,-0.00983764,0.00786089,0.0006337
 1,-0.00347553,0.00030999,-0.00196368,0.00094489,0.00054833,0.00001525,
 0.00031897,0.00004594,-0.00025099,0.00039099,-0.00040059,-0.00017003,-
 0.00006985,0.00032627,-0.00001415,-0.00018528,-0.00006453,0.00125155,0
 .00322967,-0.00036864,0.00008942,-0.00036575,-0.00005278,-0.06150421,-
 0.03461760,0.02690200,0.00577853,0.00360182,-0.00501281,0.32150523,-0.
 00116976,-0.00262522,0.00040093,0.00064118,0.00063780,-0.00047848,0.00
 013937,0.00195810,0.00022866,-0.00671974,-0.02636717,0.01814309,0.0027
 7223,0.00318964,0.00075152,-0.00034754,0.00082265,-0.00089785,0.000004
 32,0.00059619,-0.00002050,0.00080774,-0.00104449,-0.00007471,-0.000591
 71,-0.00005830,0.00067601,0.00019944,0.00034234,-0.00026714,0.00155390
 ,0.00361737,-0.00032261,-0.00006320,-0.00053988,-0.00000126,-0.0424174
 8,-0.13615218,0.04961891,0.00826965,0.01676846,-0.01916562,0.24882886,
 0.80972216,0.00193412,0.00299131,-0.00016582,-0.00124801,-0.00200611,-
 0.00133718,-0.00388830,-0.00431465,-0.00125441,0.00766806,0.02392340,0
 .01078291,-0.00400780,-0.00779646,0.00090868,-0.00065248,-0.00065639,0
 .00076739,-0.00008443,-0.00100665,0.00007503,0.00134710,0.00001884,0.0
 0128620,0.00071246,0.00037667,-0.00034503,-0.00041566,-0.00070223,0.00
 021033,-0.00189673,-0.00466266,0.00025343,0.00003068,0.00051469,0.0001
 9198,0.03472395,0.04481493,-0.26350166,0.00521106,0.01733505,-0.031611
 65,0.00371506,0.04305348,0.59477615,0.00012062,-0.00009856,-0.00003751
 ,-0.00042764,-0.00020039,-0.00005084,0.00036189,0.00018238,-0.00037800
 ,0.00025342,0.00081833,-0.00071696,-0.00044992,0.00008056,-0.00027286,
 0.00009910,0.00000139,0.00009452,0.00004304,-0.00000988,0.00003311,-0.
 00006739,0.00010070,-0.00003648,0.00000544,0.00000155,0.00002918,0.000
 01381,-0.00000113,0.00003169,-0.00010159,-0.00010065,-0.00001501,0.000
 00641,-0.00000095,0.00002597,0.00993975,0.00091779,0.00878667,0.004133
 34,-0.00244178,0.00169019,-0.09063664,-0.00448467,-0.01490201,0.551462
 28,-0.00028276,0.00010504,0.00000577,0.00016002,0.00022333,0.00006924,
 0.00052348,-0.00066640,0.00109529,0.00072778,-0.00031792,0.00140402,0.
 00036870,0.00023329,-0.00033241,-0.00017877,-0.00033358,-0.00001943,0.
 00002426,-0.00000699,0.00002779,-0.00047857,-0.00015950,0.00026737,0.0
 0002357,0.00001336,0.00005539,0.00000654,-0.00001434,0.00002128,0.0000
 0635,-0.00001186,0.00000610,0.00001373,0.00000862,-0.00000728,-0.00035
 380,0.01494014,0.01293291,-0.00366604,-0.00116889,0.00435391,-0.003663
 09,-0.09619452,-0.02961490,0.01857174,0.57600090,0.00022399,-0.0004630
 7,-0.00014565,-0.00026462,-0.00026070,-0.00009850,-0.00009521,0.000974
 41,-0.00094428,-0.00056548,-0.00089977,-0.00229701,-0.00030702,-0.0000
 7546,0.00015347,0.00011432,0.00043774,0.00013333,-0.00005301,0.0001071
 1,-0.00007155,0.00039601,0.00024179,-0.00012134,-0.00007925,-0.0000357
 7,-0.00004647,0.00000985,0.00003725,-0.00004135,0.00019467,0.00045528,
 0.00004633,-0.00002781,-0.00005207,-0.00004659,-0.00165828,-0.00866194
 ,-0.03070872,0.00104754,0.00248869,-0.00134435,-0.00938153,-0.02950262
 ,-0.17388136,-0.01042327,-0.05047623,0.49426197,0.00015893,-0.00014264
 ,-0.00005456,-0.00015361,-0.00028957,-0.00016193,-0.00040308,0.0004066
 1,-0.00039405,0.00031555,0.00073734,-0.00020906,-0.00010983,-0.0001953
 0,0.00027752,0.00007903,0.00026374,-0.00003207,-0.00001369,-0.00001476
 ,0.00000690,0.00060199,0.00007685,0.00007011,0.00003018,-0.00002332,-0
 .00005982,-0.00000462,0.00000441,-0.00002122,0.00005771,0.00007687,0.0
 0001132,-0.00001257,-0.00002171,0.00000824,-0.00014533,0.00020550,0.00
 013786,-0.00030427,0.00002449,0.00013002,0.00678374,-0.00464942,-0.000
 97248,-0.21679463,0.11384303,0.05594056,0.23463617,-0.00005593,-0.0001
 0181,0.00003649,0.00005685,-0.00000231,-0.00003772,-0.00009145,-0.0000
 3150,0.00013889,-0.00009222,0.00023067,-0.00026677,-0.00009283,-0.0000
 9027,-0.00000578,0.00002836,0.00008460,0.00001081,0.00001120,-0.000019
 32,0.00002969,0.00000069,-0.00024684,0.00042552,0.00001693,-0.00000405
 ,-0.00000904,0.00000740,0.00000014,0.00000295,0.00004593,0.00011824,-0
 .00003410,-0.00000180,-0.00002417,0.00000929,-0.00025747,-0.00000745,0
 .00049551,-0.00010891,-0.00001537,-0.00016489,0.01082140,-0.00898617,-
 0.00204803,0.11610228,-0.11993335,-0.03815087,-0.12599773,0.12866761,0
 .00000183,-0.00005604,-0.00005978,-0.00018032,0.00014110,0.00011926,0.
 00078884,0.00005946,-0.00040562,0.00020371,-0.00066366,-0.00005604,0.0
 0003533,0.00012537,0.00009263,-0.00009640,0.00006252,0.00003529,0.0000
 2031,0.00000508,0.00001193,-0.00029090,0.00055261,-0.00024873,-0.00006
 477,-0.00000383,0.00002796,0.00000042,0.00001259,-0.00000291,-0.000018
 25,0.00005679,0.00003193,0.00002329,0.00001957,-0.00000753,-0.00223423
 ,0.00045697,-0.00235535,-0.00123464,0.00053946,-0.00041962,0.02836050,
 -0.01706376,-0.00663594,0.05885000,-0.03979156,-0.06421297,-0.06138858
 ,0.04240027,0.06812764,-0.00023894,0.00027214,0.00006406,0.00041036,0.
 00043831,0.00014983,0.00000548,-0.00032435,0.00056183,0.00023828,-0.00
 059234,0.00073580,0.00049912,0.00041611,-0.00010812,-0.00011296,-0.000
 36529,-0.00009035,-0.00001019,0.00000841,-0.00002607,-0.00037590,-0.00
 000913,-0.00017772,-0.00004517,0.00001626,0.00004480,0.00000021,0.0000
 0387,0.00001216,-0.00004582,-0.00013868,0.00001812,0.00000837,0.000030
 32,-0.00001342,0.00036407,0.00021759,-0.00091892,0.00005332,-0.0000422
 9,-0.00003039,-0.00317713,-0.00138156,0.00284595,-0.21869980,-0.130840
 70,-0.00271022,-0.02028041,-0.01682456,-0.00041177,0.23488782,-0.00012
 403,-0.00011755,0.00003624,0.00010455,-0.00005668,-0.00002963,0.000053
 76,-0.00025487,0.00057920,0.00028663,0.00047939,0.00103934,0.00015956,
 0.00007825,0.00025583,0.00003863,0.00005169,-0.00004837,0.,0.00000056,
 -0.00000566,0.00013303,0.00002239,-0.00000158,0.00001340,-0.00002129,-
 0.00008745,-0.00000448,0.00000918,-0.00003043,0.00005811,0.00010301,-0
 .00002048,-0.00000355,-0.00002397,0.00000950,0.00050539,-0.00007084,0.
 00024544,0.00002367,-0.00014609,0.00003440,-0.00928921,-0.01059442,0.0
 0279805,-0.13248378,-0.14618702,0.00078959,0.01483533,0.01207794,0.000
 85322,0.14461702,0.15752108,0.00018261,0.00035260,-0.00009099,-0.00021
 486,-0.00010137,0.00009125,-0.00024142,0.00098439,-0.00048708,-0.00035
 072,-0.00037943,-0.00136643,0.00038210,0.00030892,-0.00031302,0.000100
 25,-0.00010482,-0.00000818,0.00002125,-0.00003871,0.00002347,0.0000210
 1,-0.00002239,-0.00000927,-0.00004344,-0.00001085,-0.00003094,0.000001
 56,0.00000257,0.00002015,-0.00015362,-0.00036948,0.00003308,0.00000585
 ,0.00004653,0.00001798,0.00158655,0.00159863,-0.00071040,0.00034703,-0
 .00041308,0.00046112,-0.02656360,-0.01567500,0.00882102,-0.00081279,0.
 00212554,-0.05209446,0.00657192,0.00646867,-0.00029242,-0.00034426,0.0
 0011221,0.05122619,-0.00006690,0.00014668,0.00004005,0.00015590,0.0000
 7898,-0.00002546,-0.00036147,0.00009093,0.00030961,-0.00016325,-0.0003
 8758,0.00059952,0.00036694,0.00016767,-0.00007428,0.00000495,-0.000143
 10,-0.00006636,-0.00001229,0.00000250,-0.00001597,0.00013330,-0.000067
 13,-0.00002655,-0.00001803,-0.00000112,0.00000515,0.00000016,-0.000001
 94,-0.00000006,-0.00000200,-0.00007783,0.00000337,-0.00000738,0.000004
 08,0.00000011,0.00028135,-0.00082172,-0.00078171,0.00052786,-0.0000378
 7,0.00009827,-0.00152574,0.00507849,-0.00129136,-0.05289444,0.02218725
 ,-0.02406407,-0.00301608,0.01967490,-0.01894180,0.00564680,-0.01828804
 ,0.01879245,0.05132914,-0.00012258,0.00027798,0.00005873,0.00012034,0.
 00026232,0.00009731,0.00015360,-0.00022067,0.00043504,-0.00037294,-0.0
 0065953,0.00037560,0.00029871,0.00020070,-0.00020996,-0.00001896,-0.00
 026719,-0.00001297,0.00001248,-0.00001018,-0.00000503,-0.00026441,0.00
 002465,-0.00012199,-0.00003650,0.00001030,0.00000768,0.00000191,-0.000
 00547,0.00001810,-0.00008674,-0.00020765,0.00000232,0.00000949,0.00003
 419,0.00000393,-0.00002279,-0.00150954,-0.00251053,0.00052218,0.000238
 06,-0.00062575,-0.00321991,0.01067074,-0.01191971,0.02395674,-0.197881
 00,0.13923150,0.00116929,-0.01211481,0.01115401,0.00406247,-0.01194921
 ,0.01078633,-0.02681072,0.21222649,-0.00013538,-0.00002363,0.00006835,
 0.00011136,0.00017175,-0.00000795,0.00012062,-0.00019752,0.00023022,-0
 .00066125,-0.00113048,0.00020795,0.00014833,0.00019832,0.00001095,0.00
 000332,-0.00009651,-0.00001764,0.00000716,0.00002584,-0.00000412,-0.00
 008493,-0.00001384,-0.00006292,-0.00003342,-0.00000178,-0.00000812,0.0
 0000743,0.00001565,-0.00000645,0.00004057,0.00008755,-0.00001588,-0.00
 000057,-0.00001014,-0.00000390,-0.00118867,-0.00393749,-0.00423579,0.0
 0084754,0.00066659,-0.00121207,-0.00331945,0.02615275,-0.02373280,-0.0
 2476430,0.13444621,-0.16905366,0.00044074,-0.00746168,0.00715051,0.001
 29608,-0.00190639,0.00116115,0.02531686,-0.14642330,0.18520602,0.00055
 526,0.00142060,-0.00012742,-0.00058783,-0.00046278,-0.00045929,-0.0014
 8089,-0.00148749,0.00069146,0.00817030,0.00098643,0.00201615,0.0001419
 1,0.00023879,-0.00040258,0.00028754,-0.00080268,-0.00023984,-0.0000679
 1,-0.00029227,-0.00005844,0.00011575,-0.00002871,0.00022086,0.00013473
 ,0.00010698,0.00002072,-0.00007474,-0.00006204,0.00003443,-0.00071285,
 -0.00187476,0.00022989,-0.00002063,0.00023882,0.00001827,0.00329157,-0
 .03867041,0.01898304,-0.00546660,0.00145359,-0.00128646,-0.16119273,-0
 .20647009,-0.02882919,0.01363295,-0.01699271,-0.00829716,-0.00142517,-
 0.00324304,-0.00342257,0.00087249,-0.00063600,0.00071214,-0.00037884,0
 .00064833,0.00184796,0.14420568,0.00129667,0.00271050,-0.00029805,-0.0
 0102861,-0.00082674,-0.00029888,-0.00127578,-0.00087659,0.00103088,-0.
 00035012,0.01082799,0.00482118,-0.00025091,-0.00440366,-0.00076341,-0.
 00050808,-0.00084810,0.00050520,-0.00008352,-0.00051539,-0.00009427,0.
 00010245,0.00018661,0.00013075,0.00026361,0.00020821,-0.00015652,-0.00
 025593,-0.00045650,0.00012590,-0.00139585,-0.00346093,0.00036335,0.000
 02041,0.00047216,0.00001364,-0.03639513,-0.07007966,0.04382435,0.00055
 295,-0.00258245,-0.00085236,-0.20504286,-0.56576312,-0.07109862,-0.020
 91169,-0.02864933,-0.01618487,-0.00030901,0.00039820,0.00113983,0.0004
 3639,-0.00092154,-0.00567126,-0.00079444,0.00087982,-0.00056189,0.2659
 2944,0.66370052,-0.00043721,-0.00059407,0.00004088,0.00015972,0.000674
 33,0.00030369,0.00128814,0.00076622,0.00038366,-0.00035535,-0.00264073
 ,-0.00297097,0.00050830,0.00198711,-0.00026351,0.00034037,0.00005096,-
 0.00015161,0.00002369,0.00026936,-0.00004780,-0.00047944,0.00011088,-0
 .00029509,-0.00013953,-0.00010808,-0.00006574,0.00010237,0.00019180,-0
 .00003991,0.00036556,0.00089605,-0.00001673,-0.00001664,-0.00008104,-0
 .00007020,0.02353732,0.05575163,0.01096504,-0.00114476,-0.00237114,0.0
 0591493,-0.02389269,-0.05555580,-0.11560729,-0.01713132,-0.03656901,0.
 00051316,-0.00030140,-0.00183921,-0.00090024,-0.00089740,-0.00462302,-
 0.00645224,0.00012224,-0.00034131,0.00432615,0.01834802,0.04402506,0.1
 0443383||0.00002198,-0.00001647,0.00000713,-0.00000412,-0.00000502,-0.
 00000186,-0.00000192,-0.00000302,-0.00000246,-0.00001926,0.00001067,-0
 .00000938,-0.00000957,-0.00000154,-0.00000232,-0.00001233,0.00001605,-
 0.00000029,0.00000097,0.00000320,-0.00000313,0.00000105,0.00000558,-0.
 00000238,0.00000388,-0.00000033,-0.00000338,0.00000569,-0.00000109,-0.
 00000016,0.00000446,0.00000959,-0.00000082,-0.00000667,-0.00000499,-0.
 00000378,0.00004670,-0.00000710,0.00000865,-0.00000235,0.00000981,-0.0
 0000536,-0.00003354,-0.00001408,-0.00000210,-0.00001856,-0.00003579,0.
 00001625,0.00000170,0.00000585,0.00000636,0.00000533,0.00000804,-0.000
 00780,0.00000290,0.00000136,-0.00000208,0.00001367,0.00001929,0.000008
 92|||@


 MEN HAVE BECOME THE TOOLS OF THEIR TOOLS... THOREAU   
 Job cpu time:       0 days  0 hours 16 minutes 16.0 seconds.
 Elapsed time:       0 days  0 hours 16 minutes 14.4 seconds.
 File lengths (MBytes):  RWF=    123 Int=      0 D2E=      0 Chk=      6 Scr=      1
 Normal termination of Gaussian 16 at Fri Sep 11 11:18:23 2020.
