 Entering Link 1 = C:\G16W\l1.exe PID=     10804.
  
 Copyright (c) 1988-2017, Gaussian, Inc.  All Rights Reserved.
  
 This is part of the Gaussian(R) 16 program.  It is based on
 the Gaussian(R) 09 system (copyright 2009, Gaussian, Inc.),
 the Gaussian(R) 03 system (copyright 2003, Gaussian, Inc.),
 the Gaussian(R) 98 system (copyright 1998, Gaussian, Inc.),
 the Gaussian(R) 94 system (copyright 1995, Gaussian, Inc.),
 the Gaussian 92(TM) system (copyright 1992, Gaussian, Inc.),
 the Gaussian 90(TM) system (copyright 1990, Gaussian, Inc.),
 the Gaussian 88(TM) system (copyright 1988, Gaussian, Inc.),
 the Gaussian 86(TM) system (copyright 1986, Carnegie Mellon
 University), and the Gaussian 82(TM) system (copyright 1983,
 Carnegie Mellon University). Gaussian is a federally registered
 trademark of Gaussian, Inc.
  
 This software contains proprietary and confidential information,
 including trade secrets, belonging to Gaussian, Inc.
  
 This software is provided under written license and may be
 used, copied, transmitted, or stored only in accord with that
 written license.
  
 The following legend is applicable only to US Government
 contracts under FAR:
  
                    RESTRICTED RIGHTS LEGEND
  
 Use, reproduction and disclosure by the US Government is
 subject to restrictions as set forth in subparagraphs (a)
 and (c) of the Commercial Computer Software - Restricted
 Rights clause in FAR 52.227-19.
  
 Gaussian, Inc.
 340 Quinnipiac St., Bldg. 40, Wallingford CT 06492
  
  
 ---------------------------------------------------------------
 Warning -- This program may not be used in any manner that
 competes with the business of Gaussian, Inc. or will provide
 assistance to any competitor of Gaussian, Inc.  The licensee
 of this program is prohibited from giving any competitor of
 Gaussian, Inc. access to this program.  By using this program,
 the user acknowledges that Gaussian, Inc. is engaged in the
 business of creating and licensing software in the field of
 computational chemistry and represents and warrants to the
 licensee that it is not a competitor of Gaussian, Inc. and that
 it will not use this program in any manner prohibited above.
 ---------------------------------------------------------------
  

 Cite this work as:
 Gaussian 16, Revision B.01,
 M. J. Frisch, G. W. Trucks, H. B. Schlegel, G. E. Scuseria, 
 M. A. Robb, J. R. Cheeseman, G. Scalmani, V. Barone, 
 G. A. Petersson, H. Nakatsuji, X. Li, M. Caricato, A. V. Marenich, 
 J. Bloino, B. G. Janesko, R. Gomperts, B. Mennucci, H. P. Hratchian, 
 J. V. Ortiz, A. F. Izmaylov, J. L. Sonnenberg, D. Williams-Young, 
 F. Ding, F. Lipparini, F. Egidi, J. Goings, B. Peng, A. Petrone, 
 T. Henderson, D. Ranasinghe, V. G. Zakrzewski, J. Gao, N. Rega, 
 G. Zheng, W. Liang, M. Hada, M. Ehara, K. Toyota, R. Fukuda, 
 J. Hasegawa, M. Ishida, T. Nakajima, Y. Honda, O. Kitao, H. Nakai, 
 T. Vreven, K. Throssell, J. A. Montgomery, Jr., J. E. Peralta, 
 F. Ogliaro, M. J. Bearpark, J. J. Heyd, E. N. Brothers, K. N. Kudin, 
 V. N. Staroverov, T. A. Keith, R. Kobayashi, J. Normand, 
 K. Raghavachari, A. P. Rendell, J. C. Burant, S. S. Iyengar, 
 J. Tomasi, M. Cossi, J. M. Millam, M. Klene, C. Adamo, R. Cammi, 
 J. W. Ochterski, R. L. Martin, K. Morokuma, O. Farkas, 
 J. B. Foresman, and D. J. Fox, Gaussian, Inc., Wallingford CT, 2016.
 
 ******************************************
 Gaussian 16:  EM64W-G16RevB.01 16-Dec-2017
                11-Sep-2020 
 ******************************************
 %nprocshared=6
 Will use up to    6 processors via shared memory.
 %chk=C:\Users\no83wec\Documents\BA_projektmodul\2020_09_10\phenylalanine\phenyla
 lanine.chk
 -------------------------------------------------------------------
 # opt freq(raman, printderivatives) b3lyp/6-31+G* geom=connectivity
 -------------------------------------------------------------------
 1/18=20,19=15,26=3,38=1,57=2/1,3;
 2/9=110,12=2,17=6,18=5,40=1/2;
 3/5=1,6=6,7=11,11=2,25=1,30=1,71=1,74=-5/1,2,3;
 4//1;
 5/5=2,38=5/2;
 6/7=2,8=2,9=2,10=2,28=1/1;
 7//1,2,3,16;
 1/18=20,19=15,26=3/3(2);
 2/9=110/2;
 99//99;
 2/9=110/2;
 3/5=1,6=6,7=11,11=2,25=1,30=1,71=1,74=-5/1,2,3;
 4/5=5,16=3,69=1/1;
 5/5=2,38=5/2;
 7//1,2,3,16;
 1/18=20,19=15,26=3/3(-5);
 2/9=110/2;
 6/7=2,8=2,9=2,10=2,19=2,28=1/1;
 99/9=1/99;
 --------------------
 Geometrie & Frequenz
 --------------------
 Symbolic Z-matrix:
 Charge =  0 Multiplicity = 1
 C                    -3.00921  -0.80726   0.66055 
 C                    -1.76697  -1.32982   0.29592 
 C                    -0.84583  -0.555    -0.42219 
 C                    -1.19246   0.7614   -0.76405 
 C                    -2.43479   1.28405  -0.40143 
 C                    -3.34697   0.50235   0.31173 
 H                    -3.71267  -1.42126   1.21161 
 H                    -1.51234  -2.35104   0.56191 
 H                    -0.47428   1.36887  -1.30142 
 H                    -2.69132   2.30091  -0.67682 
 H                    -4.31235   0.90858   0.59089 
 C                     0.51879  -1.11374  -0.78222 
 H                     0.47003  -2.20674  -0.84884 
 H                     0.84487  -0.71874  -1.75113 
 C                     1.61767  -0.74454   0.24768 
 H                     1.31384  -0.99974   1.26306 
 C                     1.88433   0.75264   0.18418 
 N                     2.93068  -1.37352  -0.02716 
 H                     2.95031  -2.36716   0.20994 
 H                     3.22506  -1.21732  -0.99515 
 O                     1.91307   1.4228   -0.84646 
 O                     2.14471   1.27433   1.4246 
 H                     2.3745    2.24061   1.31997 
 

 GradGradGradGradGradGradGradGradGradGradGradGradGradGradGradGradGradGrad
 Berny optimization.
 Initialization pass.
                           ----------------------------
                           !    Initial Parameters    !
                           ! (Angstroms and Degrees)  !
 --------------------------                            --------------------------
 ! Name  Definition              Value          Derivative Info.                !
 --------------------------------------------------------------------------------
 ! R1    R(1,2)                  1.3961         estimate D2E/DX2                !
 ! R2    R(1,6)                  1.3967         estimate D2E/DX2                !
 ! R3    R(1,7)                  1.0842         estimate D2E/DX2                !
 ! R4    R(2,3)                  1.4016         estimate D2E/DX2                !
 ! R5    R(2,8)                  1.0856         estimate D2E/DX2                !
 ! R6    R(3,4)                  1.4035         estimate D2E/DX2                !
 ! R7    R(3,12)                 1.5179         estimate D2E/DX2                !
 ! R8    R(4,5)                  1.3957         estimate D2E/DX2                !
 ! R9    R(4,9)                  1.0833         estimate D2E/DX2                !
 ! R10   R(5,6)                  1.397          estimate D2E/DX2                !
 ! R11   R(5,10)                 1.0843         estimate D2E/DX2                !
 ! R12   R(6,11)                 1.0839         estimate D2E/DX2                !
 ! R13   R(12,13)                1.0961         estimate D2E/DX2                !
 ! R14   R(12,14)                1.096          estimate D2E/DX2                !
 ! R15   R(12,15)                1.5507         estimate D2E/DX2                !
 ! R16   R(15,16)                1.0901         estimate D2E/DX2                !
 ! R17   R(15,17)                1.5221         estimate D2E/DX2                !
 ! R18   R(15,18)                1.4816         estimate D2E/DX2                !
 ! R19   R(17,21)                1.2297         estimate D2E/DX2                !
 ! R20   R(17,22)                1.3706         estimate D2E/DX2                !
 ! R21   R(18,19)                1.0217         estimate D2E/DX2                !
 ! R22   R(18,20)                1.0237         estimate D2E/DX2                !
 ! R23   R(22,23)                0.9987         estimate D2E/DX2                !
 ! A1    A(2,1,6)              120.0588         estimate D2E/DX2                !
 ! A2    A(2,1,7)              119.8731         estimate D2E/DX2                !
 ! A3    A(6,1,7)              120.0676         estimate D2E/DX2                !
 ! A4    A(1,2,3)              120.7741         estimate D2E/DX2                !
 ! A5    A(1,2,8)              119.7894         estimate D2E/DX2                !
 ! A6    A(3,2,8)              119.4339         estimate D2E/DX2                !
 ! A7    A(2,3,4)              118.7485         estimate D2E/DX2                !
 ! A8    A(2,3,12)             120.5882         estimate D2E/DX2                !
 ! A9    A(4,3,12)             120.6313         estimate D2E/DX2                !
 ! A10   A(3,4,5)              120.5149         estimate D2E/DX2                !
 ! A11   A(3,4,9)              118.8832         estimate D2E/DX2                !
 ! A12   A(5,4,9)              120.5962         estimate D2E/DX2                !
 ! A13   A(4,5,6)              120.2834         estimate D2E/DX2                !
 ! A14   A(4,5,10)             119.7214         estimate D2E/DX2                !
 ! A15   A(6,5,10)             119.9951         estimate D2E/DX2                !
 ! A16   A(1,6,5)              119.6193         estimate D2E/DX2                !
 ! A17   A(1,6,11)             120.1623         estimate D2E/DX2                !
 ! A18   A(5,6,11)             120.2183         estimate D2E/DX2                !
 ! A19   A(3,12,13)            109.9673         estimate D2E/DX2                !
 ! A20   A(3,12,14)            110.1514         estimate D2E/DX2                !
 ! A21   A(3,12,15)            113.0739         estimate D2E/DX2                !
 ! A22   A(13,12,14)           108.5963         estimate D2E/DX2                !
 ! A23   A(13,12,15)           108.0179         estimate D2E/DX2                !
 ! A24   A(14,12,15)           106.8884         estimate D2E/DX2                !
 ! A25   A(12,15,16)           111.4302         estimate D2E/DX2                !
 ! A26   A(12,15,17)           109.3079         estimate D2E/DX2                !
 ! A27   A(12,15,18)           113.8117         estimate D2E/DX2                !
 ! A28   A(16,15,17)           108.5392         estimate D2E/DX2                !
 ! A29   A(16,15,18)           108.6868         estimate D2E/DX2                !
 ! A30   A(17,15,18)           104.7491         estimate D2E/DX2                !
 ! A31   A(15,17,21)           125.1085         estimate D2E/DX2                !
 ! A32   A(15,17,22)           111.711          estimate D2E/DX2                !
 ! A33   A(21,17,22)           123.1367         estimate D2E/DX2                !
 ! A34   A(15,18,19)           112.7573         estimate D2E/DX2                !
 ! A35   A(15,18,20)           111.4356         estimate D2E/DX2                !
 ! A36   A(19,18,20)           111.2402         estimate D2E/DX2                !
 ! A37   A(17,22,23)           108.4911         estimate D2E/DX2                !
 ! D1    D(6,1,2,3)             -0.0726         estimate D2E/DX2                !
 ! D2    D(6,1,2,8)           -179.4773         estimate D2E/DX2                !
 ! D3    D(7,1,2,3)            179.689          estimate D2E/DX2                !
 ! D4    D(7,1,2,8)              0.2843         estimate D2E/DX2                !
 ! D5    D(2,1,6,5)             -0.0707         estimate D2E/DX2                !
 ! D6    D(2,1,6,11)           179.7819         estimate D2E/DX2                !
 ! D7    D(7,1,6,5)           -179.8319         estimate D2E/DX2                !
 ! D8    D(7,1,6,11)             0.0207         estimate D2E/DX2                !
 ! D9    D(1,2,3,4)              0.2928         estimate D2E/DX2                !
 ! D10   D(1,2,3,12)           178.2518         estimate D2E/DX2                !
 ! D11   D(8,2,3,4)            179.6997         estimate D2E/DX2                !
 ! D12   D(8,2,3,12)            -2.3414         estimate D2E/DX2                !
 ! D13   D(2,3,4,5)             -0.3747         estimate D2E/DX2                !
 ! D14   D(2,3,4,9)            178.7651         estimate D2E/DX2                !
 ! D15   D(12,3,4,5)          -178.3327         estimate D2E/DX2                !
 ! D16   D(12,3,4,9)             0.807          estimate D2E/DX2                !
 ! D17   D(2,3,12,13)           26.657          estimate D2E/DX2                !
 ! D18   D(2,3,12,14)          146.3099         estimate D2E/DX2                !
 ! D19   D(2,3,12,15)          -94.1728         estimate D2E/DX2                !
 ! D20   D(4,3,12,13)         -155.4227         estimate D2E/DX2                !
 ! D21   D(4,3,12,14)          -35.7698         estimate D2E/DX2                !
 ! D22   D(4,3,12,15)           83.7476         estimate D2E/DX2                !
 ! D23   D(3,4,5,6)              0.2377         estimate D2E/DX2                !
 ! D24   D(3,4,5,10)          -179.672          estimate D2E/DX2                !
 ! D25   D(9,4,5,6)           -178.8872         estimate D2E/DX2                !
 ! D26   D(9,4,5,10)             1.2031         estimate D2E/DX2                !
 ! D27   D(4,5,6,1)             -0.0115         estimate D2E/DX2                !
 ! D28   D(4,5,6,11)          -179.864          estimate D2E/DX2                !
 ! D29   D(10,5,6,1)           179.8979         estimate D2E/DX2                !
 ! D30   D(10,5,6,11)            0.0454         estimate D2E/DX2                !
 ! D31   D(3,12,15,16)          51.8933         estimate D2E/DX2                !
 ! D32   D(3,12,15,17)         -68.0695         estimate D2E/DX2                !
 ! D33   D(3,12,15,18)         175.221          estimate D2E/DX2                !
 ! D34   D(13,12,15,16)        -70.0365         estimate D2E/DX2                !
 ! D35   D(13,12,15,17)        170.0006         estimate D2E/DX2                !
 ! D36   D(13,12,15,18)         53.2911         estimate D2E/DX2                !
 ! D37   D(14,12,15,16)        173.2706         estimate D2E/DX2                !
 ! D38   D(14,12,15,17)         53.3077         estimate D2E/DX2                !
 ! D39   D(14,12,15,18)        -63.4018         estimate D2E/DX2                !
 ! D40   D(12,15,17,21)        -38.9411         estimate D2E/DX2                !
 ! D41   D(12,15,17,22)        143.4107         estimate D2E/DX2                !
 ! D42   D(16,15,17,21)       -160.6648         estimate D2E/DX2                !
 ! D43   D(16,15,17,22)         21.687          estimate D2E/DX2                !
 ! D44   D(18,15,17,21)         83.3759         estimate D2E/DX2                !
 ! D45   D(18,15,17,22)        -94.2723         estimate D2E/DX2                !
 ! D46   D(12,15,18,19)        -74.8851         estimate D2E/DX2                !
 ! D47   D(12,15,18,20)         51.0417         estimate D2E/DX2                !
 ! D48   D(16,15,18,19)         49.9239         estimate D2E/DX2                !
 ! D49   D(16,15,18,20)        175.8507         estimate D2E/DX2                !
 ! D50   D(17,15,18,19)        165.7809         estimate D2E/DX2                !
 ! D51   D(17,15,18,20)        -68.2923         estimate D2E/DX2                !
 ! D52   D(15,17,22,23)        176.0951         estimate D2E/DX2                !
 ! D53   D(21,17,22,23)         -1.6073         estimate D2E/DX2                !
 --------------------------------------------------------------------------------
 Trust Radius=3.00D-01 FncErr=1.00D-07 GrdErr=1.00D-06 EigMax=2.50D+02 EigMin=1.00D-04
 Number of steps in this run=    123 maximum allowed number of steps=    138.
 GradGradGradGradGradGradGradGradGradGradGradGradGradGradGradGradGradGrad

                          Input orientation:                          
 ---------------------------------------------------------------------
 Center     Atomic      Atomic             Coordinates (Angstroms)
 Number     Number       Type             X           Y           Z
 ---------------------------------------------------------------------
      1          6           0       -3.009211   -0.807256    0.660550
      2          6           0       -1.766969   -1.329819    0.295920
      3          6           0       -0.845831   -0.554998   -0.422195
      4          6           0       -1.192462    0.761401   -0.764050
      5          6           0       -2.434789    1.284049   -0.401430
      6          6           0       -3.346969    0.502351    0.311729
      7          1           0       -3.712674   -1.421256    1.211607
      8          1           0       -1.512338   -2.351044    0.561909
      9          1           0       -0.474276    1.368873   -1.301420
     10          1           0       -2.691317    2.300908   -0.676820
     11          1           0       -4.312353    0.908581    0.590892
     12          6           0        0.518788   -1.113745   -0.782220
     13          1           0        0.470026   -2.206739   -0.848842
     14          1           0        0.844872   -0.718736   -1.751130
     15          6           0        1.617671   -0.744538    0.247682
     16          1           0        1.313838   -0.999737    1.263056
     17          6           0        1.884326    0.752645    0.184182
     18          7           0        2.930682   -1.373515   -0.027163
     19          1           0        2.950307   -2.367157    0.209940
     20          1           0        3.225055   -1.217318   -0.995152
     21          8           0        1.913073    1.422801   -0.846465
     22          8           0        2.144709    1.274334    1.424604
     23          1           0        2.374503    2.240613    1.319975
 ---------------------------------------------------------------------
                    Distance matrix (angstroms):
                    1          2          3          4          5
     1  C    0.000000
     2  C    1.396135   0.000000
     3  C    2.432321   1.401617   0.000000
     4  C    2.791191   2.413875   1.403540   0.000000
     5  C    2.414812   2.786501   2.430496   1.395719   0.000000
     6  C    1.396720   2.419400   2.812885   2.422045   1.397039
     7  H    1.084214   2.152350   3.411524   3.875394   3.399051
     8  H    2.152589   1.085582   2.153712   3.398206   3.872059
     9  H    3.874372   3.391974   2.147643   1.083319   2.158886
    10  H    3.398573   3.870765   3.409817   2.150408   1.084273
    11  H    2.155720   3.402414   3.896817   3.404592   2.156600
    12  C    3.823911   2.536485   1.517893   2.538676   3.823354
    13  H    4.042513   2.661506   2.154473   3.403074   4.563302
    14  H    4.547306   3.374248   2.156700   2.704785   4.072961
    15  C    4.645690   3.435210   2.559981   3.344892   4.578094
    16  H    4.369074   3.245871   2.775253   3.673187   4.694507
    17  C    5.158189   4.204889   3.087293   3.219603   4.390909
    18  N    6.006324   4.708951   3.884336   4.701190   5.999250
    19  H    6.176746   4.830751   4.253725   5.281957   6.534856
    20  H    6.463403   5.157502   4.164020   4.845946   6.216364
    21  O    5.610092   4.735470   3.421001   3.176255   4.372781
    22  O    5.610676   4.832884   3.962380   4.023683   4.930142
    23  H    6.221634   5.563135   4.606642   4.387992   5.196878
                    6          7          8          9         10
     6  C    0.000000
     7  H    2.154944   0.000000
     8  H    3.401518   2.475498   0.000000
     9  H    3.406680   4.958563   4.288048   0.000000
    10  H    2.154510   4.296956   4.956319   2.484771   0.000000
    11  H    1.083938   2.484561   4.297217   4.303899   2.484637
    12  C    4.330423   4.687769   2.731861   2.723809   4.687828
    13  H    4.822400   4.728363   2.437378   3.725793   5.508408
    14  H    4.828868   5.481110   3.683887   2.510080   4.772528
    15  C    5.119227   5.458908   3.532218   3.352978   5.356941
    16  H    4.988427   5.044417   3.210126   3.922269   5.540635
    17  C    5.238831   6.091621   4.616589   2.854777   4.906623
    18  N    6.560687   6.758033   4.587265   4.553917   6.747615
    19  H    6.920991   6.803924   4.476533   5.288657   7.375981
    20  H    6.917853   7.283094   5.113969   4.524072   6.890769
    21  O    5.464127   6.631241   5.287615   2.430911   4.690443
    22  O    5.656233   6.451396   5.221265   3.781432   5.371870
    23  H    6.064104   7.104559   6.063458   3.968272   5.445490
                   11         12         13         14         15
    11  H    0.000000
    12  C    5.414347   0.000000
    13  H    5.886357   1.096108   0.000000
    14  H    5.893233   1.095969   1.780108   0.000000
    15  C    6.165694   1.550663   2.158121   2.143159   0.000000
    16  H    5.978921   2.197329   2.574681   3.063365   1.090149
    17  C    6.211968   2.506399   3.438798   2.644022   1.522068
    18  N    7.619154   2.540635   2.724747   2.784134   1.481603
    19  H    7.976328   2.909933   2.701582   3.316013   2.100056
    20  H    7.990463   2.716606   2.930964   2.546637   2.086106
    21  O    6.409863   2.895208   3.905887   2.558448   2.445767
    22  O    6.520928   3.635466   4.482298   3.968273   2.395571
    23  H    6.857107   4.372027   5.301862   4.530916   3.260941
                   16         17         18         19         20
    16  H    0.000000
    17  C    2.135478   0.000000
    18  N    2.102037   2.379093   0.000000
    19  H    2.378428   3.296990   1.021728   0.000000
    20  H    2.966411   2.658785   1.023747   1.688154   0.000000
    21  O    3.267698   1.229702   3.086449   4.068861   2.951886
    22  O    2.426488   1.370623   3.120334   3.922353   3.637403
    23  H    3.410003   1.935033   3.896927   4.774440   4.247416
                   21         22         23
    21  O    0.000000
    22  O    2.287674   0.000000
    23  H    2.361185   0.998723   0.000000
 Stoichiometry    C9H11NO2
 Framework group  C1[X(C9H11NO2)]
 Deg. of freedom    63
 Full point group                 C1      NOp   1
 Largest Abelian subgroup         C1      NOp   1
 Largest concise Abelian subgroup C1      NOp   1
                         Standard orientation:                         
 ---------------------------------------------------------------------
 Center     Atomic      Atomic             Coordinates (Angstroms)
 Number     Number       Type             X           Y           Z
 ---------------------------------------------------------------------
      1          6           0        3.009211    0.807256    0.660550
      2          6           0        1.766969    1.329819    0.295920
      3          6           0        0.845831    0.554998   -0.422195
      4          6           0        1.192462   -0.761401   -0.764050
      5          6           0        2.434789   -1.284049   -0.401430
      6          6           0        3.346969   -0.502351    0.311729
      7          1           0        3.712674    1.421256    1.211607
      8          1           0        1.512338    2.351044    0.561909
      9          1           0        0.474276   -1.368873   -1.301420
     10          1           0        2.691317   -2.300908   -0.676820
     11          1           0        4.312353   -0.908581    0.590892
     12          6           0       -0.518788    1.113745   -0.782220
     13          1           0       -0.470026    2.206739   -0.848842
     14          1           0       -0.844872    0.718736   -1.751130
     15          6           0       -1.617671    0.744538    0.247682
     16          1           0       -1.313838    0.999737    1.263056
     17          6           0       -1.884326   -0.752645    0.184182
     18          7           0       -2.930682    1.373515   -0.027163
     19          1           0       -2.950307    2.367157    0.209940
     20          1           0       -3.225055    1.217318   -0.995152
     21          8           0       -1.913073   -1.422801   -0.846465
     22          8           0       -2.144709   -1.274334    1.424604
     23          1           0       -2.374503   -2.240613    1.319975
 ---------------------------------------------------------------------
 Rotational constants (GHZ):           1.7244957           0.5871627           0.5121029
 Standard basis: 6-31+G(d) (6D, 7F)
 There are   250 symmetry adapted cartesian basis functions of A   symmetry.
 There are   250 symmetry adapted basis functions of A   symmetry.
   250 basis functions,   428 primitive gaussians,   250 cartesian basis functions
    44 alpha electrons       44 beta electrons
       nuclear repulsion energy       678.8222636891 Hartrees.
 NAtoms=   23 NActive=   23 NUniq=   23 SFac= 1.00D+00 NAtFMM=   60 NAOKFM=F Big=F
 Integral buffers will be    131072 words long.
 Raffenetti 2 integral format.
 Two-electron integral symmetry is turned on.
 One-electron integrals computed using PRISM.
 NBasis=   250 RedAO= T EigKep=  3.51D-06  NBF=   250
 NBsUse=   250 1.00D-06 EigRej= -1.00D+00 NBFU=   250
 ExpMin= 4.38D-02 ExpMax= 5.48D+03 ExpMxC= 8.25D+02 IAcc=3 IRadAn=         5 AccDes= 0.00D+00
 Harris functional with IExCor=  402 and IRadAn=       5 diagonalized for initial guess.
 HarFok:  IExCor=  402 AccDes= 0.00D+00 IRadAn=         5 IDoV= 1 UseB2=F ITyADJ=14
 ICtDFT=  3500011 ScaDFX=  1.000000  1.000000  1.000000  1.000000
 FoFCou: FMM=F IPFlag=           0 FMFlag=      100000 FMFlg1=           0
         NFxFlg=           0 DoJE=T BraDBF=F KetDBF=T FulRan=T
         wScrn=  0.000000 ICntrl=       500 IOpCl=  0 I1Cent=   200000004 NGrid=           0
         NMat0=    1 NMatS0=      1 NMatT0=    0 NMatD0=    1 NMtDS0=    0 NMtDT0=    0
 Petite list used in FoFCou.
 Requested convergence on RMS density matrix=1.00D-08 within 128 cycles.
 Requested convergence on MAX density matrix=1.00D-06.
 Requested convergence on             energy=1.00D-06.
 No special actions if energy rises.
 SCF Done:  E(RB3LYP) =  -554.809516416     A.U. after   15 cycles
            NFock= 15  Conv=0.41D-08     -V/T= 2.0099

 **********************************************************************

            Population analysis using the SCF Density.

 **********************************************************************

 Orbital symmetries:
       Occupied  (A) (A) (A) (A) (A) (A) (A) (A) (A) (A) (A) (A)
                 (A) (A) (A) (A) (A) (A) (A) (A) (A) (A) (A) (A)
                 (A) (A) (A) (A) (A) (A) (A) (A) (A) (A) (A) (A)
                 (A) (A) (A) (A) (A) (A) (A) (A)
       Virtual   (A) (A) (A) (A) (A) (A) (A) (A) (A) (A) (A) (A)
                 (A) (A) (A) (A) (A) (A) (A) (A) (A) (A) (A) (A)
                 (A) (A) (A) (A) (A) (A) (A) (A) (A) (A) (A) (A)
                 (A) (A) (A) (A) (A) (A) (A) (A) (A) (A) (A) (A)
                 (A) (A) (A) (A) (A) (A) (A) (A) (A) (A) (A) (A)
                 (A) (A) (A) (A) (A) (A) (A) (A) (A) (A) (A) (A)
                 (A) (A) (A) (A) (A) (A) (A) (A) (A) (A) (A) (A)
                 (A) (A) (A) (A) (A) (A) (A) (A) (A) (A) (A) (A)
                 (A) (A) (A) (A) (A) (A) (A) (A) (A) (A) (A) (A)
                 (A) (A) (A) (A) (A) (A) (A) (A) (A) (A) (A) (A)
                 (A) (A) (A) (A) (A) (A) (A) (A) (A) (A) (A) (A)
                 (A) (A) (A) (A) (A) (A) (A) (A) (A) (A) (A) (A)
                 (A) (A) (A) (A) (A) (A) (A) (A) (A) (A) (A) (A)
                 (A) (A) (A) (A) (A) (A) (A) (A) (A) (A) (A) (A)
                 (A) (A) (A) (A) (A) (A) (A) (A) (A) (A) (A) (A)
                 (A) (A) (A) (A) (A) (A) (A) (A) (A) (A) (A) (A)
                 (A) (A) (A) (A) (A) (A) (A) (A) (A) (A) (A) (A)
                 (A) (A)
 The electronic state is 1-A.
 Alpha  occ. eigenvalues --  -19.21639 -19.16300 -14.34315 -10.33874 -10.24756
 Alpha  occ. eigenvalues --  -10.20451 -10.20064 -10.19760 -10.19656 -10.19613
 Alpha  occ. eigenvalues --  -10.19555 -10.19128  -1.11016  -1.02648  -0.90564
 Alpha  occ. eigenvalues --   -0.86129  -0.78848  -0.74991  -0.73330  -0.68122
 Alpha  occ. eigenvalues --   -0.61170  -0.60481  -0.57979  -0.54380  -0.51804
 Alpha  occ. eigenvalues --   -0.49474  -0.48821  -0.46679  -0.46464  -0.45521
 Alpha  occ. eigenvalues --   -0.42991  -0.42339  -0.41692  -0.41134  -0.39441
 Alpha  occ. eigenvalues --   -0.37821  -0.36331  -0.34877  -0.34552  -0.33135
 Alpha  occ. eigenvalues --   -0.29630  -0.26538  -0.25682  -0.24261
 Alpha virt. eigenvalues --   -0.02736  -0.01640  -0.01151  -0.00270   0.00363
 Alpha virt. eigenvalues --    0.00964   0.02425   0.03304   0.03596   0.04911
 Alpha virt. eigenvalues --    0.05220   0.06399   0.06714   0.06874   0.08491
 Alpha virt. eigenvalues --    0.09055   0.09204   0.09660   0.10171   0.10576
 Alpha virt. eigenvalues --    0.12082   0.12414   0.13167   0.13972   0.14545
 Alpha virt. eigenvalues --    0.14812   0.15628   0.15832   0.16530   0.17124
 Alpha virt. eigenvalues --    0.17410   0.17617   0.18321   0.18901   0.19311
 Alpha virt. eigenvalues --    0.19809   0.20311   0.20972   0.21045   0.21681
 Alpha virt. eigenvalues --    0.21951   0.22280   0.23010   0.23434   0.24480
 Alpha virt. eigenvalues --    0.24734   0.24968   0.25275   0.25945   0.26701
 Alpha virt. eigenvalues --    0.27522   0.27672   0.28757   0.29558   0.29825
 Alpha virt. eigenvalues --    0.30232   0.30379   0.31350   0.32094   0.33134
 Alpha virt. eigenvalues --    0.33861   0.34327   0.34400   0.35486   0.36080
 Alpha virt. eigenvalues --    0.36841   0.37787   0.38281   0.39069   0.40094
 Alpha virt. eigenvalues --    0.43215   0.44718   0.50773   0.56685   0.60343
 Alpha virt. eigenvalues --    0.64809   0.67382   0.68892   0.69596   0.69841
 Alpha virt. eigenvalues --    0.70852   0.72032   0.72892   0.73876   0.74372
 Alpha virt. eigenvalues --    0.75044   0.75756   0.76878   0.79873   0.80024
 Alpha virt. eigenvalues --    0.81718   0.82732   0.85463   0.87674   0.89428
 Alpha virt. eigenvalues --    0.90850   0.92266   0.93616   0.94311   0.95852
 Alpha virt. eigenvalues --    0.96332   0.98824   0.99876   1.00766   1.01825
 Alpha virt. eigenvalues --    1.02057   1.03934   1.05601   1.07130   1.10375
 Alpha virt. eigenvalues --    1.11707   1.12438   1.14832   1.15855   1.16200
 Alpha virt. eigenvalues --    1.16495   1.18212   1.21245   1.22528   1.24296
 Alpha virt. eigenvalues --    1.25898   1.28696   1.30276   1.33013   1.33303
 Alpha virt. eigenvalues --    1.35688   1.38685   1.39815   1.42305   1.44603
 Alpha virt. eigenvalues --    1.45245   1.46168   1.47770   1.48146   1.49119
 Alpha virt. eigenvalues --    1.51242   1.52777   1.58104   1.63123   1.65032
 Alpha virt. eigenvalues --    1.70449   1.71867   1.76097   1.79156   1.79564
 Alpha virt. eigenvalues --    1.82045   1.83447   1.85575   1.86109   1.88852
 Alpha virt. eigenvalues --    1.92150   1.94002   1.95966   1.97299   1.98066
 Alpha virt. eigenvalues --    2.00271   2.01404   2.02755   2.09288   2.10973
 Alpha virt. eigenvalues --    2.12200   2.14212   2.15228   2.18199   2.18492
 Alpha virt. eigenvalues --    2.20991   2.23989   2.27635   2.28638   2.30689
 Alpha virt. eigenvalues --    2.36415   2.38959   2.41677   2.44563   2.45881
 Alpha virt. eigenvalues --    2.48775   2.56396   2.58005   2.61552   2.63602
 Alpha virt. eigenvalues --    2.66131   2.69992   2.73023   2.74761   2.75283
 Alpha virt. eigenvalues --    2.76808   2.79080   2.84836   2.90403   2.97228
 Alpha virt. eigenvalues --    3.05323   3.09249   3.12768   3.40432   3.96954
 Alpha virt. eigenvalues --    4.16989   4.25033   4.25682   4.28971   4.34386
 Alpha virt. eigenvalues --    4.39177   4.42224   4.45079   4.53198   4.67742
 Alpha virt. eigenvalues --    4.73710
          Condensed to atoms (all electrons):
               1          2          3          4          5          6
     1  C    6.501876  -0.543857  -0.059014  -0.162922   0.053516   0.436798
     2  C   -0.543857  14.792961  -2.993728  -5.698396  -0.640449   0.423314
     3  C   -0.059014  -2.993728  12.617444  -0.934435  -0.342706  -0.870179
     4  C   -0.162922  -5.698396  -0.934435  12.747703  -0.144668   0.070073
     5  C    0.053516  -0.640449  -0.342706  -0.144668   6.642342   0.374508
     6  C    0.436798   0.423314  -0.870179   0.070073   0.374508   5.421866
     7  H    0.295487  -0.033903   0.055512  -0.006314   0.012743  -0.025844
     8  H    0.035718   0.171472   0.050912   0.032689  -0.003225   0.003287
     9  H   -0.006944   0.011094   0.046749   0.219482   0.023367   0.006224
    10  H    0.014447  -0.008192   0.029458  -0.021586   0.296374  -0.014333
    11  H   -0.013306   0.008462  -0.004125   0.016299  -0.005144   0.288360
    12  C   -0.340035   0.838238  -1.738445   0.074660  -0.149374   0.074855
    13  H    0.008215   0.136722  -0.185675  -0.071249  -0.006983   0.003850
    14  H   -0.009399  -0.084580  -0.142750   0.127570  -0.003678   0.002442
    15  C   -0.004001  -0.219658  -0.662915   0.157200   0.232482  -0.067905
    16  H    0.000713  -0.078499   0.042992   0.069814   0.006717  -0.000860
    17  C   -0.021945   0.293416   0.426288  -0.301202  -0.188375   0.045903
    18  N    0.027872   0.083636  -0.044883  -0.001999  -0.014720   0.004966
    19  H   -0.000821   0.003565  -0.001260  -0.005547   0.000197   0.000003
    20  H    0.001081   0.000365   0.002859   0.003583   0.000092  -0.000143
    21  O    0.002484  -0.039452  -0.054298   0.066660  -0.010846  -0.004066
    22  O   -0.004705  -0.043876  -0.062928   0.055389   0.039271   0.006992
    23  H    0.000058   0.000368  -0.006652   0.003478   0.001686   0.000101
               7          8          9         10         11         12
     1  C    0.295487   0.035718  -0.006944   0.014447  -0.013306  -0.340035
     2  C   -0.033903   0.171472   0.011094  -0.008192   0.008462   0.838238
     3  C    0.055512   0.050912   0.046749   0.029458  -0.004125  -1.738445
     4  C   -0.006314   0.032689   0.219482  -0.021586   0.016299   0.074660
     5  C    0.012743  -0.003225   0.023367   0.296374  -0.005144  -0.149374
     6  C   -0.025844   0.003287   0.006224  -0.014333   0.288360   0.074855
     7  H    0.540744  -0.004980   0.000017  -0.000170  -0.004867  -0.005585
     8  H   -0.004980   0.559731  -0.000160   0.000018  -0.000163  -0.032580
     9  H    0.000017  -0.000160   0.512848  -0.004500  -0.000154  -0.015487
    10  H   -0.000170   0.000018  -0.004500   0.538235  -0.004855  -0.005192
    11  H   -0.004867  -0.000163  -0.000154  -0.004855   0.541190   0.001682
    12  C   -0.005585  -0.032580  -0.015487  -0.005192   0.001682   7.585269
    13  H   -0.000006   0.003599   0.000010   0.000002   0.000000   0.437803
    14  H    0.000003   0.000058   0.002446  -0.000005   0.000000   0.451499
    15  C   -0.000824   0.020336  -0.011300  -0.000454   0.000166  -0.221816
    16  H    0.000002  -0.000109   0.000011   0.000000   0.000000  -0.102599
    17  C    0.000189  -0.003803   0.007614   0.001243  -0.000404  -0.002645
    18  N   -0.000008  -0.001281  -0.000754  -0.000011   0.000000  -0.153401
    19  H    0.000000   0.000003   0.000001   0.000000   0.000000  -0.016070
    20  H    0.000000   0.000000   0.000003   0.000000   0.000000  -0.029261
    21  O    0.000001   0.000018  -0.003340   0.000051   0.000003   0.034892
    22  O    0.000002  -0.000025   0.000246  -0.000029   0.000002   0.017524
    23  H    0.000000   0.000000  -0.000018   0.000000   0.000000  -0.007037
              13         14         15         16         17         18
     1  C    0.008215  -0.009399  -0.004001   0.000713  -0.021945   0.027872
     2  C    0.136722  -0.084580  -0.219658  -0.078499   0.293416   0.083636
     3  C   -0.185675  -0.142750  -0.662915   0.042992   0.426288  -0.044883
     4  C   -0.071249   0.127570   0.157200   0.069814  -0.301202  -0.001999
     5  C   -0.006983  -0.003678   0.232482   0.006717  -0.188375  -0.014720
     6  C    0.003850   0.002442  -0.067905  -0.000860   0.045903   0.004966
     7  H   -0.000006   0.000003  -0.000824   0.000002   0.000189  -0.000008
     8  H    0.003599   0.000058   0.020336  -0.000109  -0.003803  -0.001281
     9  H    0.000010   0.002446  -0.011300   0.000011   0.007614  -0.000754
    10  H    0.000002  -0.000005  -0.000454   0.000000   0.001243  -0.000011
    11  H    0.000000   0.000000   0.000166   0.000000  -0.000404   0.000000
    12  C    0.437803   0.451499  -0.221816  -0.102599  -0.002645  -0.153401
    13  H    0.533514  -0.031926  -0.035640  -0.002743   0.014983  -0.006841
    14  H   -0.031926   0.497255  -0.023905   0.004461  -0.025595  -0.009124
    15  C   -0.035640  -0.023905   9.035876   0.391523  -1.736986  -0.024156
    16  H   -0.002743   0.004461   0.391523   0.514461  -0.040312  -0.032619
    17  C    0.014983  -0.025595  -1.736986  -0.040312   6.095782   0.070261
    18  N   -0.006841  -0.009124  -0.024156  -0.032619   0.070261   7.233980
    19  H    0.001886  -0.000118  -0.044830  -0.005178   0.038975   0.312167
    20  H   -0.000618   0.003220   0.067415   0.004480  -0.056398   0.284931
    21  O    0.000410   0.003167  -0.211073   0.006075   0.601659  -0.004815
    22  O   -0.000501   0.000924  -0.101122  -0.001297   0.215068   0.005562
    23  H    0.000005  -0.000002   0.066818  -0.000022  -0.037032  -0.002808
              19         20         21         22         23
     1  C   -0.000821   0.001081   0.002484  -0.004705   0.000058
     2  C    0.003565   0.000365  -0.039452  -0.043876   0.000368
     3  C   -0.001260   0.002859  -0.054298  -0.062928  -0.006652
     4  C   -0.005547   0.003583   0.066660   0.055389   0.003478
     5  C    0.000197   0.000092  -0.010846   0.039271   0.001686
     6  C    0.000003  -0.000143  -0.004066   0.006992   0.000101
     7  H    0.000000   0.000000   0.000001   0.000002   0.000000
     8  H    0.000003   0.000000   0.000018  -0.000025   0.000000
     9  H    0.000001   0.000003  -0.003340   0.000246  -0.000018
    10  H    0.000000   0.000000   0.000051  -0.000029   0.000000
    11  H    0.000000   0.000000   0.000003   0.000002   0.000000
    12  C   -0.016070  -0.029261   0.034892   0.017524  -0.007037
    13  H    0.001886  -0.000618   0.000410  -0.000501   0.000005
    14  H   -0.000118   0.003220   0.003167   0.000924  -0.000002
    15  C   -0.044830   0.067415  -0.211073  -0.101122   0.066818
    16  H   -0.005178   0.004480   0.006075  -0.001297  -0.000022
    17  C    0.038975  -0.056398   0.601659   0.215068  -0.037032
    18  N    0.312167   0.284931  -0.004815   0.005562  -0.002808
    19  H    0.363214  -0.031412  -0.000167  -0.000003   0.000022
    20  H   -0.031412   0.359349   0.001821  -0.000235  -0.000012
    21  O   -0.000167   0.001821   8.194411  -0.145006   0.012170
    22  O   -0.000003  -0.000235  -0.145006   8.405839   0.155373
    23  H    0.000022  -0.000012   0.012170   0.155373   0.338986
 Mulliken charges:
               1
     1  C   -0.211318
     2  C   -0.379024
     3  C    0.831781
     4  C   -0.296282
     5  C   -0.173128
     6  C   -0.180213
     7  H    0.177804
     8  H    0.168483
     9  H    0.212548
    10  H    0.179499
    11  H    0.176853
    12  C   -0.696895
    13  H    0.201183
    14  H    0.238037
    15  C   -0.605230
    16  H    0.222988
    17  C    0.603316
    18  N   -0.725955
    19  H    0.385373
    20  H    0.388881
    21  O   -0.450759
    22  O   -0.542462
    23  H    0.474519
 Sum of Mulliken charges =   0.00000
 Mulliken charges with hydrogens summed into heavy atoms:
               1
     1  C   -0.033514
     2  C   -0.210541
     3  C    0.831781
     4  C   -0.083735
     5  C    0.006372
     6  C   -0.003361
    12  C   -0.257675
    15  C   -0.382242
    17  C    0.603316
    18  N    0.048299
    21  O   -0.450759
    22  O   -0.067943
 Electronic spatial extent (au):  <R**2>=           2272.9870
 Charge=              0.0000 electrons
 Dipole moment (field-independent basis, Debye):
    X=              0.4375    Y=              1.3185    Z=              0.5878  Tot=              1.5084
 Quadrupole moment (field-independent basis, Debye-Ang):
   XX=            -72.5489   YY=            -62.0780   ZZ=            -75.2683
   XY=             -2.9837   XZ=              2.7416   YZ=             -2.3965
 Traceless Quadrupole moment (field-independent basis, Debye-Ang):
   XX=             -2.5838   YY=              7.8871   ZZ=             -5.3032
   XY=             -2.9837   XZ=              2.7416   YZ=             -2.3965
 Octapole moment (field-independent basis, Debye-Ang**2):
  XXX=              5.2403  YYY=             -7.3988  ZZZ=             -0.7484  XYY=            -21.7794
  XXY=             -6.4186  XXZ=              4.8801  XZZ=            -10.6696  YZZ=             -0.1504
  YYZ=             14.1631  XYZ=             17.6385
 Hexadecapole moment (field-independent basis, Debye-Ang**3):
 XXXX=          -2129.2389 YYYY=           -559.0164 ZZZZ=           -311.2750 XXXY=              1.5542
 XXXZ=             81.9678 YYYX=              4.7927 YYYZ=            -19.0342 ZZZX=              3.9133
 ZZZY=             -6.2425 XXYY=           -389.1173 XXZZ=           -417.2355 YYZZ=           -148.6946
 XXYZ=            -25.4789 YYXZ=            -30.4206 ZZXY=              4.2742
 N-N= 6.788222636891D+02 E-N=-2.648557106160D+03  KE= 5.493812821331D+02
 Calling FoFJK, ICntrl=      2127 FMM=F ISym2X=0 I1Cent= 0 IOpClX= 0 NMat=1 NMatS=1 NMatT=0.
 ***** Axes restored to original set *****
 -------------------------------------------------------------------
 Center     Atomic                   Forces (Hartrees/Bohr)
 Number     Number              X              Y              Z
 -------------------------------------------------------------------
      1        6           0.000259108    0.000631513   -0.000321272
      2        6          -0.000380856    0.001591625   -0.000985605
      3        6           0.002334819   -0.000839825   -0.000601705
      4        6          -0.001675752   -0.002019840    0.000952474
      5        6          -0.000078315   -0.000661788    0.000382264
      6        6           0.000880856   -0.000479990   -0.000284237
      7        1          -0.001388066   -0.001313072    0.001100552
      8        1           0.000225298   -0.002078819    0.000626378
      9        1          -0.000665774    0.001551602   -0.002088618
     10        1          -0.000477551    0.002073855   -0.000562942
     11        1          -0.001970751    0.000818522    0.000558910
     12        6          -0.002971366    0.002005410    0.004177713
     13        1           0.000698801   -0.000169985   -0.000290399
     14        1          -0.000553890   -0.002185587   -0.000751756
     15        6           0.007693657   -0.004942297   -0.013897786
     16        1           0.000354444   -0.001671852    0.001440217
     17        6           0.006957057    0.022384888   -0.001413976
     18        7          -0.002345202    0.004099312    0.004478693
     19        1          -0.001617581    0.004847253   -0.004463392
     20        1          -0.002914941   -0.004636775    0.004908395
     21        8           0.001965561   -0.013238901    0.022822379
     22        8           0.000533910    0.013113911   -0.015205386
     23        1          -0.004863468   -0.018879160   -0.000580903
 -------------------------------------------------------------------
 Cartesian Forces:  Max     0.022822379 RMS     0.006070739

 GradGradGradGradGradGradGradGradGradGradGradGradGradGradGradGradGradGrad
 Berny optimization.
 FormGI is forming the generalized inverse of G from B-inverse, IUseBI=4.
 Internal  Forces:  Max     0.026296898 RMS     0.004196952
 Search for a local minimum.
 Step number   1 out of a maximum of  123
 All quantities printed in internal units (Hartrees-Bohrs-Radians)
 Mixed Optimization -- RFO/linear search
 Second derivative matrix not updated -- first step.
 ITU=  0
     Eigenvalues ---    0.00230   0.00474   0.00529   0.00612   0.00867
     Eigenvalues ---    0.01439   0.02064   0.02080   0.02094   0.02104
     Eigenvalues ---    0.02122   0.02130   0.02134   0.02136   0.02138
     Eigenvalues ---    0.03362   0.04051   0.04445   0.04876   0.05469
     Eigenvalues ---    0.06900   0.09226   0.12808   0.15998   0.15999
     Eigenvalues ---    0.16000   0.16000   0.16000   0.16000   0.16000
     Eigenvalues ---    0.16000   0.17031   0.17750   0.22000   0.22000
     Eigenvalues ---    0.22035   0.23469   0.24983   0.24987   0.25000
     Eigenvalues ---    0.27595   0.30168   0.30570   0.34116   0.34132
     Eigenvalues ---    0.34387   0.34795   0.35328   0.35483   0.35490
     Eigenvalues ---    0.35523   0.35596   0.41658   0.41756   0.43746
     Eigenvalues ---    0.44064   0.45398   0.45734   0.46175   0.46305
     Eigenvalues ---    0.47914   0.50857   0.91210
 RFO step:  Lambda=-7.72221641D-03 EMin= 2.30000000D-03
 Linear search not attempted -- first point.
 Iteration  1 RMS(Cart)=  0.13153334 RMS(Int)=  0.00467772
 Iteration  2 RMS(Cart)=  0.00703760 RMS(Int)=  0.00037622
 Iteration  3 RMS(Cart)=  0.00002419 RMS(Int)=  0.00037592
 Iteration  4 RMS(Cart)=  0.00000000 RMS(Int)=  0.00037592
 Variable       Old X    -DE/DX   Delta X   Delta X   Delta X     New X
                                 (Linear)    (Quad)   (Total)
    R1        2.63831   0.00137   0.00000   0.00286   0.00285   2.64117
    R2        2.63942   0.00042   0.00000   0.00086   0.00083   2.64025
    R3        2.04887   0.00220   0.00000   0.00608   0.00608   2.05494
    R4        2.64867   0.00170   0.00000   0.00369   0.00370   2.65238
    R5        2.05145   0.00216   0.00000   0.00599   0.00599   2.05744
    R6        2.65231   0.00202   0.00000   0.00445   0.00447   2.65678
    R7        2.86840   0.00208   0.00000   0.00665   0.00665   2.87505
    R8        2.63753   0.00173   0.00000   0.00372   0.00373   2.64125
    R9        2.04718   0.00146   0.00000   0.00403   0.00403   2.05120
   R10        2.64002   0.00067   0.00000   0.00142   0.00141   2.64143
   R11        2.04898   0.00220   0.00000   0.00607   0.00607   2.05505
   R12        2.04835   0.00221   0.00000   0.00608   0.00608   2.05442
   R13        2.07134   0.00016   0.00000   0.00045   0.00045   2.07179
   R14        2.07108  -0.00029   0.00000  -0.00083  -0.00083   2.07026
   R15        2.93033   0.00307   0.00000   0.01082   0.01082   2.94115
   R16        2.06008   0.00163   0.00000   0.00459   0.00459   2.06468
   R17        2.87629   0.00390   0.00000   0.01259   0.01259   2.88888
   R18        2.79982  -0.00884   0.00000  -0.02514  -0.02514   2.77469
   R19        2.32380  -0.02630   0.00000  -0.02859  -0.02859   2.29521
   R20        2.59010  -0.01730   0.00000  -0.03352  -0.03352   2.55659
   R21        1.93079  -0.00578   0.00000  -0.01289  -0.01289   1.91789
   R22        1.93460  -0.00619   0.00000  -0.01390  -0.01390   1.92070
   R23        1.88731  -0.01932   0.00000  -0.03969  -0.03969   1.84762
    A1        2.09542  -0.00001   0.00000  -0.00046  -0.00048   2.09494
    A2        2.09218  -0.00007   0.00000  -0.00024  -0.00023   2.09195
    A3        2.09558   0.00008   0.00000   0.00069   0.00070   2.09627
    A4        2.10791   0.00151   0.00000   0.00631   0.00632   2.11423
    A5        2.09072  -0.00106   0.00000  -0.00497  -0.00497   2.08575
    A6        2.08451  -0.00045   0.00000  -0.00130  -0.00131   2.08320
    A7        2.07255  -0.00225   0.00000  -0.00852  -0.00863   2.06392
    A8        2.10466  -0.00317   0.00000  -0.01194  -0.01212   2.09255
    A9        2.10541   0.00544   0.00000   0.02147   0.02130   2.12671
   A10        2.10338   0.00081   0.00000   0.00354   0.00352   2.10690
   A11        2.07490   0.00125   0.00000   0.00820   0.00811   2.08301
   A12        2.10480  -0.00205   0.00000  -0.01146  -0.01155   2.09325
   A13        2.09934   0.00041   0.00000   0.00163   0.00164   2.10098
   A14        2.08953  -0.00025   0.00000  -0.00107  -0.00109   2.08845
   A15        2.09431  -0.00016   0.00000  -0.00057  -0.00058   2.09373
   A16        2.08775  -0.00047   0.00000  -0.00241  -0.00244   2.08531
   A17        2.09723   0.00023   0.00000   0.00117   0.00117   2.09840
   A18        2.09820   0.00024   0.00000   0.00122   0.00122   2.09942
   A19        1.91929  -0.00230   0.00000  -0.02694  -0.02656   1.89273
   A20        1.92251  -0.00113   0.00000   0.01775   0.01628   1.93879
   A21        1.97351   0.00659   0.00000   0.03359   0.03281   2.00632
   A22        1.89536  -0.00003   0.00000  -0.01710  -0.01672   1.87865
   A23        1.88527  -0.00377   0.00000  -0.03572  -0.03532   1.84994
   A24        1.86555   0.00049   0.00000   0.02711   0.02596   1.89151
   A25        1.94482  -0.00335   0.00000  -0.03131  -0.03124   1.91358
   A26        1.90778   0.00800   0.00000   0.06271   0.06242   1.97020
   A27        1.98639   0.00057   0.00000   0.01262   0.01157   1.99796
   A28        1.89437  -0.00142   0.00000  -0.01067  -0.01032   1.88405
   A29        1.89694   0.00007   0.00000  -0.02977  -0.02998   1.86696
   A30        1.82822  -0.00396   0.00000  -0.00253  -0.00389   1.82433
   A31        2.18355   0.00059   0.00000   0.00203   0.00196   2.18551
   A32        1.94972   0.00308   0.00000   0.01168   0.01160   1.96133
   A33        2.14914  -0.00367   0.00000  -0.01453  -0.01459   2.13455
   A34        1.96799  -0.00194   0.00000  -0.02821  -0.02907   1.93892
   A35        1.94492   0.00046   0.00000  -0.01415  -0.01502   1.92990
   A36        1.94151  -0.00178   0.00000  -0.03888  -0.04051   1.90100
   A37        1.89353  -0.00499   0.00000  -0.02975  -0.02975   1.86378
    D1       -0.00127   0.00022   0.00000   0.00838   0.00834   0.00708
    D2       -3.13247   0.00010   0.00000   0.00346   0.00338  -3.12909
    D3        3.13617   0.00013   0.00000   0.00557   0.00558  -3.14144
    D4        0.00496   0.00002   0.00000   0.00065   0.00061   0.00558
    D5       -0.00123   0.00012   0.00000   0.00520   0.00523   0.00400
    D6        3.13779  -0.00010   0.00000  -0.00330  -0.00326   3.13453
    D7       -3.13866   0.00020   0.00000   0.00802   0.00800  -3.13065
    D8        0.00036  -0.00001   0.00000  -0.00048  -0.00049  -0.00013
    D9        0.00511  -0.00051   0.00000  -0.02041  -0.02031  -0.01520
   D10        3.11108   0.00033   0.00000   0.01240   0.01208   3.12316
   D11        3.13635  -0.00039   0.00000  -0.01553  -0.01537   3.12098
   D12       -0.04086   0.00044   0.00000   0.01729   0.01702  -0.02385
   D13       -0.00654   0.00046   0.00000   0.01915   0.01909   0.01255
   D14        3.12004   0.00106   0.00000   0.04058   0.04069  -3.12246
   D15       -3.11249  -0.00020   0.00000  -0.01298  -0.01325  -3.12574
   D16        0.01409   0.00040   0.00000   0.00845   0.00835   0.02244
   D17        0.46525   0.00067   0.00000   0.05148   0.05140   0.51665
   D18        2.55359  -0.00153   0.00000   0.02453   0.02421   2.57780
   D19       -1.64363   0.00267   0.00000   0.09369   0.09388  -1.54975
   D20       -2.71264   0.00136   0.00000   0.08429   0.08435  -2.62829
   D21       -0.62430  -0.00084   0.00000   0.05733   0.05716  -0.56714
   D22        1.46167   0.00336   0.00000   0.12649   0.12682   1.58849
   D23        0.00415  -0.00011   0.00000  -0.00589  -0.00598  -0.00183
   D24       -3.13587   0.00006   0.00000   0.00122   0.00117  -3.13470
   D25       -3.12217  -0.00076   0.00000  -0.02786  -0.02788   3.13314
   D26        0.02100  -0.00058   0.00000  -0.02076  -0.02073   0.00027
   D27       -0.00020  -0.00017   0.00000  -0.00642  -0.00638  -0.00658
   D28       -3.13922   0.00005   0.00000   0.00208   0.00211  -3.13710
   D29        3.13981  -0.00035   0.00000  -0.01355  -0.01356   3.12625
   D30        0.00079  -0.00013   0.00000  -0.00505  -0.00506  -0.00427
   D31        0.90571  -0.00080   0.00000  -0.06531  -0.06589   0.83982
   D32       -1.18804  -0.00216   0.00000  -0.07335  -0.07322  -1.26125
   D33        3.05818  -0.00291   0.00000  -0.11996  -0.12059   2.93759
   D34       -1.22237   0.00049   0.00000  -0.02783  -0.02806  -1.25043
   D35        2.96707  -0.00087   0.00000  -0.03587  -0.03539   2.93168
   D36        0.93011  -0.00162   0.00000  -0.08248  -0.08276   0.84734
   D37        3.02414   0.00218   0.00000  -0.00392  -0.00376   3.02038
   D38        0.93040   0.00082   0.00000  -0.01196  -0.01108   0.91931
   D39       -1.10657   0.00006   0.00000  -0.05857  -0.05846  -1.16503
   D40       -0.67965  -0.00223   0.00000  -0.11913  -0.11925  -0.79890
   D41        2.50299  -0.00184   0.00000  -0.09681  -0.09689   2.40610
   D42       -2.80413  -0.00214   0.00000  -0.11253  -0.11266  -2.91679
   D43        0.37851  -0.00175   0.00000  -0.09022  -0.09029   0.28822
   D44        1.45518   0.00041   0.00000  -0.07219  -0.07202   1.38316
   D45       -1.64536   0.00080   0.00000  -0.04988  -0.04966  -1.69502
   D46       -1.30699   0.00546   0.00000   0.07948   0.07889  -1.22810
   D47        0.89085   0.00191   0.00000  -0.00627  -0.00600   0.88484
   D48        0.87134   0.00154   0.00000   0.02460   0.02407   0.89541
   D49        3.06917  -0.00201   0.00000  -0.06115  -0.06082   3.00835
   D50        2.89342  -0.00206   0.00000  -0.00253  -0.00270   2.89073
   D51       -1.19193  -0.00560   0.00000  -0.08828  -0.08759  -1.27952
   D52        3.07344  -0.00005   0.00000  -0.00773  -0.00764   3.06580
   D53       -0.02805   0.00022   0.00000   0.01363   0.01354  -0.01451
         Item               Value     Threshold  Converged?
 Maximum Force            0.026297     0.000450     NO 
 RMS     Force            0.004197     0.000300     NO 
 Maximum Displacement     0.672801     0.001800     NO 
 RMS     Displacement     0.129772     0.001200     NO 
 Predicted change in Energy=-4.530670D-03
 GradGradGradGradGradGradGradGradGradGradGradGradGradGradGradGradGradGrad

                          Input orientation:                          
 ---------------------------------------------------------------------
 Center     Atomic      Atomic             Coordinates (Angstroms)
 Number     Number       Type             X           Y           Z
 ---------------------------------------------------------------------
      1          6           0       -2.989490   -0.820555    0.703265
      2          6           0       -1.725412   -1.284390    0.328599
      3          6           0       -0.858792   -0.490064   -0.438240
      4          6           0       -1.301744    0.782793   -0.838490
      5          6           0       -2.566603    1.247766   -0.467715
      6          6           0       -3.413579    0.450455    0.307353
      7          1           0       -3.644130   -1.453425    1.297760
      8          1           0       -1.408259   -2.280775    0.631930
      9          1           0       -0.652963    1.404790   -1.447100
     10          1           0       -2.894350    2.232593   -0.792253
     11          1           0       -4.398755    0.811892    0.591422
     12          6           0        0.520435   -1.013778   -0.809922
     13          1           0        0.468774   -2.106546   -0.881769
     14          1           0        0.837152   -0.631497   -1.786520
     15          6           0        1.641050   -0.704549    0.224946
     16          1           0        1.296333   -0.965240    1.228412
     17          6           0        2.050672    0.768243    0.235362
     18          7           0        2.895237   -1.434058   -0.000311
     19          1           0        2.785355   -2.421716    0.205820
     20          1           0        3.200485   -1.330556   -0.964242
     21          8           0        2.269104    1.441552   -0.751619
     22          8           0        2.226328    1.245100    1.489179
     23          1           0        2.551814    2.162660    1.399294
 ---------------------------------------------------------------------
                    Distance matrix (angstroms):
                    1          2          3          4          5
     1  C    0.000000
     2  C    1.397645   0.000000
     3  C    2.439699   1.403577   0.000000
     4  C    2.792171   2.411398   1.405906   0.000000
     5  C    2.414121   2.784518   2.436707   1.397691   0.000000
     6  C    1.397162   2.420754   2.822663   2.425542   1.397786
     7  H    1.087429   2.156229   3.420507   3.879562   3.402117
     8  H    2.153514   1.088751   2.157273   3.399843   3.873188
     9  H    3.877574   3.396313   2.156533   1.085451   2.155428
    10  H    3.401078   3.871937   3.417848   2.154171   1.087486
    11  H    2.159496   3.407381   3.909813   3.411300   2.160680
    12  C    3.827094   2.532448   1.521411   2.559067   3.842069
    13  H    4.015681   2.637306   2.138261   3.388936   4.542726
    14  H    4.569241   3.386257   2.171195   2.733835   4.105658
    15  C    4.656624   3.417605   2.595193   3.464552   4.689953
    16  H    4.320300   3.168984   2.765517   3.752027   4.764086
    17  C    5.305322   4.298931   3.240687   3.520236   4.695049
    18  N    5.958306   4.634757   3.895592   4.819919   6.102650
    19  H    6.013319   4.653558   4.174434   5.297532   6.523972
    20  H    6.430900   5.092940   4.178616   4.975151   6.336686
    21  O    5.906490   4.955178   3.689591   3.632144   4.847909
    22  O    5.664746   4.833375   4.030348   4.251948   5.177029
    23  H    6.331673   5.596714   4.695286   4.664935   5.524577
                    6          7          8          9         10
     6  C    0.000000
     7  H    2.158429   0.000000
     8  H    3.403862   2.475269   0.000000
     9  H    3.407325   4.964949   4.298398   0.000000
    10  H    2.157486   4.303144   4.960570   2.477478   0.000000
    11  H    1.087154   2.489987   4.302244   4.305584   2.489212
    12  C    4.343818   4.688200   2.721045   2.762667   4.711687
    13  H    4.798430   4.700307   2.417622   3.729259   5.490605
    14  H    4.860416   5.501839   3.689294   2.545999   4.807878
    15  C    5.185566   5.444710   3.456647   3.536601   5.498304
    16  H    5.003580   4.965008   3.066144   4.071260   5.645444
    17  C    5.473957   6.204455   4.627957   3.247385   5.258665
    18  N    6.591449   6.666984   4.431336   4.768855   6.898610
    19  H    6.832749   6.593041   4.217563   5.403362   7.410654
    20  H    6.966693   7.209751   4.969025   4.750193   7.062056
    21  O    5.864860   6.895446   5.412294   3.003918   5.223855
    22  O    5.816935   6.463819   5.135845   4.115526   5.692225
    23  H    6.301579   7.174684   6.001262   4.352807   5.870986
                   11         12         13         14         15
    11  H    0.000000
    12  C    5.430955   0.000000
    13  H    5.863481   1.096345   0.000000
    14  H    5.928972   1.095532   1.769194   0.000000
    15  C    6.238040   1.556391   2.136503   2.167392   0.000000
    16  H    5.999832   2.181554   2.537774   3.067906   1.092581
    17  C    6.459395   2.570961   3.466236   2.742246   1.528730
    18  N    7.654852   2.543971   2.667757   2.840838   1.468301
    19  H    7.887734   2.853749   2.578513   3.312069   2.063604
    20  H    8.047275   2.703115   2.840988   2.598109   2.058615
    21  O    6.830855   3.014944   3.980845   2.723792   2.440058
    22  O    6.699655   3.646706   4.465862   4.022640   2.396240
    23  H    7.126545   4.369999   5.269575   4.571301   3.229469
                   16         17         18         19         20
    16  H    0.000000
    17  C    2.135448   0.000000
    18  N    2.070277   2.370435   0.000000
    19  H    2.320389   3.273602   1.014905   0.000000
    20  H    2.926942   2.676954   1.016392   1.652879   0.000000
    21  O    3.264882   1.214574   3.037374   4.013483   2.932109
    22  O    2.412156   1.352887   3.137500   3.924928   3.688124
    23  H    3.374787   1.884218   3.874688   4.742934   4.267275
                   21         22         23
    21  O    0.000000
    22  O    2.249799   0.000000
    23  H    2.286121   0.977720   0.000000
 Stoichiometry    C9H11NO2
 Framework group  C1[X(C9H11NO2)]
 Deg. of freedom    63
 Full point group                 C1      NOp   1
 Largest Abelian subgroup         C1      NOp   1
 Largest concise Abelian subgroup C1      NOp   1
                         Standard orientation:                         
 ---------------------------------------------------------------------
 Center     Atomic      Atomic             Coordinates (Angstroms)
 Number     Number       Type             X           Y           Z
 ---------------------------------------------------------------------
      1          6           0        3.018826    0.803203    0.716655
      2          6           0        1.764999    1.274992    0.318228
      3          6           0        0.898537    0.477401   -0.445395
      4          6           0        1.331316   -0.807340   -0.817841
      5          6           0        2.585958   -1.280343   -0.423275
      6          6           0        3.432713   -0.479395    0.348279
      7          1           0        3.673546    1.438800    1.308145
      8          1           0        1.455928    2.280161    0.600166
      9          1           0        0.682754   -1.432381   -1.423559
     10          1           0        2.906018   -2.274451   -0.726483
     11          1           0        4.409998   -0.847171    0.650867
     12          6           0       -0.469753    1.010441   -0.843319
     13          1           0       -0.404324    2.101105   -0.933554
     14          1           0       -0.778956    0.614748   -1.816978
     15          6           0       -1.606546    0.732449    0.182729
     16          1           0       -1.271110    1.006726    1.185718
     17          6           0       -2.033613   -0.735090    0.213708
     18          7           0       -2.849181    1.472363   -0.070832
     19          1           0       -2.730190    2.462153    0.119405
     20          1           0       -3.143784    1.355477   -1.036544
     21          8           0       -2.247853   -1.423067   -0.764033
     22          8           0       -2.230249   -1.187769    1.473358
     23          1           0       -2.565411   -2.102935    1.395430
 ---------------------------------------------------------------------
 Rotational constants (GHZ):           1.7263200           0.5514821           0.4898601
 Standard basis: 6-31+G(d) (6D, 7F)
 There are   250 symmetry adapted cartesian basis functions of A   symmetry.
 There are   250 symmetry adapted basis functions of A   symmetry.
   250 basis functions,   428 primitive gaussians,   250 cartesian basis functions
    44 alpha electrons       44 beta electrons
       nuclear repulsion energy       672.3079119966 Hartrees.
 NAtoms=   23 NActive=   23 NUniq=   23 SFac= 1.00D+00 NAtFMM=   60 NAOKFM=F Big=F
 Integral buffers will be    131072 words long.
 Raffenetti 2 integral format.
 Two-electron integral symmetry is turned on.
 One-electron integrals computed using PRISM.
 NBasis=   250 RedAO= T EigKep=  3.82D-06  NBF=   250
 NBsUse=   250 1.00D-06 EigRej= -1.00D+00 NBFU=   250
 Initial guess from the checkpoint file:  "C:\Users\no83wec\Documents\BA_projektmodul\2020_09_10\phenylalanine\phenylalanine.chk"
 B after Tr=     0.000000    0.000000    0.000000
         Rot=    0.999871    0.013315    0.002303    0.008726 Ang=   1.84 deg.
 ExpMin= 4.38D-02 ExpMax= 5.48D+03 ExpMxC= 8.25D+02 IAcc=3 IRadAn=         5 AccDes= 0.00D+00
 Harris functional with IExCor=  402 and IRadAn=       5 diagonalized for initial guess.
 HarFok:  IExCor=  402 AccDes= 0.00D+00 IRadAn=         5 IDoV= 1 UseB2=F ITyADJ=14
 ICtDFT=  3500011 ScaDFX=  1.000000  1.000000  1.000000  1.000000
 FoFCou: FMM=F IPFlag=           0 FMFlag=      100000 FMFlg1=           0
         NFxFlg=           0 DoJE=T BraDBF=F KetDBF=T FulRan=T
         wScrn=  0.000000 ICntrl=       500 IOpCl=  0 I1Cent=   200000004 NGrid=           0
         NMat0=    1 NMatS0=      1 NMatT0=    0 NMatD0=    1 NMtDS0=    0 NMtDT0=    0
 Petite list used in FoFCou.
 Requested convergence on RMS density matrix=1.00D-08 within 128 cycles.
 Requested convergence on MAX density matrix=1.00D-06.
 Requested convergence on             energy=1.00D-06.
 No special actions if energy rises.
 SCF Done:  E(RB3LYP) =  -554.812267817     A.U. after   13 cycles
            NFock= 13  Conv=0.91D-08     -V/T= 2.0097
 Calling FoFJK, ICntrl=      2127 FMM=F ISym2X=0 I1Cent= 0 IOpClX= 0 NMat=1 NMatS=1 NMatT=0.
 ***** Axes restored to original set *****
 -------------------------------------------------------------------
 Center     Atomic                   Forces (Hartrees/Bohr)
 Number     Number              X              Y              Z
 -------------------------------------------------------------------
      1        6           0.000374682   -0.000361409    0.000048545
      2        6          -0.000043705    0.000550414    0.000821002
      3        6           0.001675037    0.000979755   -0.001192317
      4        6           0.000737199   -0.002784743    0.001227934
      5        6          -0.000074583    0.000466452   -0.000314015
      6        6           0.000079163    0.000066083   -0.000392732
      7        1           0.000134926   -0.000084528   -0.000100061
      8        1          -0.000106201   -0.000059885    0.000151314
      9        1           0.000907512    0.001062795   -0.000622357
     10        1           0.000208035    0.000004032    0.000096476
     11        1           0.000142386    0.000077383    0.000003665
     12        6          -0.001345371    0.001881980    0.003890570
     13        1           0.000734856   -0.000650171   -0.001136951
     14        1          -0.000202914    0.000596718   -0.000437394
     15        6          -0.000829697   -0.001235260   -0.001290324
     16        1          -0.000839447    0.000367065    0.000783656
     17        6           0.001172763    0.001173686    0.001919533
     18        7           0.000088040    0.002732981    0.001147798
     19        1          -0.000278478   -0.001875950   -0.000875804
     20        1           0.001026536   -0.000982121   -0.001740371
     21        8          -0.001811950   -0.001721077   -0.001292694
     22        8          -0.001504264    0.000628157   -0.001355374
     23        1          -0.000244527   -0.000832358    0.000659901
 -------------------------------------------------------------------
 Cartesian Forces:  Max     0.003890570 RMS     0.001117266

 GradGradGradGradGradGradGradGradGradGradGradGradGradGradGradGradGradGrad
 Berny optimization.
 Using GEDIIS/GDIIS optimizer.
 FormGI is forming the generalized inverse of G from B-inverse, IUseBI=4.
 Internal  Forces:  Max     0.004051020 RMS     0.001180911
 Search for a local minimum.
 Step number   2 out of a maximum of  123
 All quantities printed in internal units (Hartrees-Bohrs-Radians)
 Mixed Optimization -- RFO/linear search
 Update second derivatives using D2CorX and points    1    2
 DE= -2.75D-03 DEPred=-4.53D-03 R= 6.07D-01
 TightC=F SS=  1.41D+00  RLast= 4.14D-01 DXNew= 5.0454D-01 1.2409D+00
 Trust test= 6.07D-01 RLast= 4.14D-01 DXMaxT set to 5.05D-01
 ITU=  1  0
 Use linear search instead of GDIIS.
     Eigenvalues ---    0.00245   0.00488   0.00559   0.00616   0.00887
     Eigenvalues ---    0.01453   0.02070   0.02080   0.02099   0.02105
     Eigenvalues ---    0.02122   0.02130   0.02133   0.02136   0.02138
     Eigenvalues ---    0.03686   0.04010   0.04415   0.04910   0.05431
     Eigenvalues ---    0.07185   0.09555   0.12968   0.15839   0.15999
     Eigenvalues ---    0.15999   0.16000   0.16000   0.16000   0.16000
     Eigenvalues ---    0.16073   0.17715   0.18983   0.21998   0.22000
     Eigenvalues ---    0.22554   0.23487   0.24813   0.24988   0.25937
     Eigenvalues ---    0.28170   0.30186   0.31078   0.34042   0.34128
     Eigenvalues ---    0.34369   0.34808   0.35290   0.35427   0.35486
     Eigenvalues ---    0.35513   0.35653   0.41719   0.41771   0.43859
     Eigenvalues ---    0.44284   0.45145   0.45691   0.45779   0.46202
     Eigenvalues ---    0.46337   0.50030   0.88434
 RFO step:  Lambda=-1.12898418D-03 EMin= 2.45178281D-03
 Quartic linear search produced a step of -0.19021.
 Iteration  1 RMS(Cart)=  0.11342115 RMS(Int)=  0.00310079
 Iteration  2 RMS(Cart)=  0.00590744 RMS(Int)=  0.00038894
 Iteration  3 RMS(Cart)=  0.00001383 RMS(Int)=  0.00038882
 Iteration  4 RMS(Cart)=  0.00000000 RMS(Int)=  0.00038882
 Variable       Old X    -DE/DX   Delta X   Delta X   Delta X     New X
                                 (Linear)    (Quad)   (Total)
    R1        2.64117  -0.00052  -0.00054   0.00023  -0.00031   2.64086
    R2        2.64025   0.00049  -0.00016   0.00129   0.00114   2.64139
    R3        2.05494  -0.00009  -0.00116   0.00207   0.00092   2.05586
    R4        2.65238  -0.00013  -0.00070   0.00112   0.00041   2.65279
    R5        2.05744   0.00007  -0.00114   0.00239   0.00125   2.05869
    R6        2.65678  -0.00212  -0.00085  -0.00226  -0.00311   2.65366
    R7        2.87505  -0.00375  -0.00126  -0.00743  -0.00869   2.86636
    R8        2.64125  -0.00038  -0.00071   0.00066  -0.00005   2.64120
    R9        2.05120   0.00150  -0.00077   0.00491   0.00414   2.05535
   R10        2.64143  -0.00005  -0.00027   0.00050   0.00023   2.64166
   R11        2.05505  -0.00009  -0.00115   0.00207   0.00091   2.05596
   R12        2.05442  -0.00010  -0.00116   0.00204   0.00088   2.05530
   R13        2.07179   0.00069  -0.00009   0.00180   0.00171   2.07350
   R14        2.07026   0.00054   0.00016   0.00097   0.00113   2.07138
   R15        2.94115  -0.00403  -0.00206  -0.00775  -0.00981   2.93135
   R16        2.06468   0.00090  -0.00087   0.00380   0.00292   2.06760
   R17        2.88888  -0.00137  -0.00239   0.00104  -0.00136   2.88753
   R18        2.77469   0.00100   0.00478  -0.00703  -0.00225   2.77244
   R19        2.29521  -0.00023   0.00544  -0.01094  -0.00550   2.28971
   R20        2.55659  -0.00094   0.00638  -0.01405  -0.00768   2.54891
   R21        1.91789   0.00168   0.00245  -0.00174   0.00071   1.91860
   R22        1.92070   0.00186   0.00264  -0.00176   0.00088   1.92158
   R23        1.84762  -0.00092   0.00755  -0.01642  -0.00887   1.83876
    A1        2.09494  -0.00015   0.00009  -0.00024  -0.00015   2.09479
    A2        2.09195  -0.00008   0.00004  -0.00085  -0.00080   2.09115
    A3        2.09627   0.00023  -0.00013   0.00109   0.00095   2.09723
    A4        2.11423  -0.00058  -0.00120   0.00035  -0.00086   2.11337
    A5        2.08575   0.00011   0.00095  -0.00174  -0.00079   2.08495
    A6        2.08320   0.00047   0.00025   0.00139   0.00164   2.08484
    A7        2.06392   0.00085   0.00164  -0.00077   0.00087   2.06479
    A8        2.09255   0.00221   0.00230   0.00266   0.00497   2.09751
    A9        2.12671  -0.00306  -0.00405  -0.00192  -0.00597   2.12075
   A10        2.10690   0.00022  -0.00067   0.00180   0.00113   2.10803
   A11        2.08301   0.00003  -0.00154   0.00341   0.00189   2.08490
   A12        2.09325  -0.00025   0.00220  -0.00523  -0.00302   2.09024
   A13        2.10098  -0.00044  -0.00031  -0.00096  -0.00127   2.09971
   A14        2.08845   0.00008   0.00021  -0.00032  -0.00011   2.08834
   A15        2.09373   0.00036   0.00011   0.00128   0.00140   2.09513
   A16        2.08531   0.00010   0.00046  -0.00010   0.00037   2.08567
   A17        2.09840   0.00004  -0.00022   0.00053   0.00030   2.09870
   A18        2.09942  -0.00014  -0.00023  -0.00039  -0.00062   2.09880
   A19        1.89273   0.00218   0.00505   0.01202   0.01702   1.90975
   A20        1.93879  -0.00012  -0.00310  -0.00799  -0.01086   1.92793
   A21        2.00632  -0.00323  -0.00624  -0.00031  -0.00647   1.99985
   A22        1.87865  -0.00067   0.00318  -0.00703  -0.00387   1.87477
   A23        1.84994   0.00101   0.00672  -0.00019   0.00644   1.85638
   A24        1.89151   0.00101  -0.00494   0.00334  -0.00148   1.89004
   A25        1.91358   0.00065   0.00594  -0.01109  -0.00526   1.90832
   A26        1.97020  -0.00405  -0.01187  -0.00114  -0.01301   1.95718
   A27        1.99796   0.00078  -0.00220   0.00834   0.00637   2.00433
   A28        1.88405   0.00055   0.00196  -0.00628  -0.00451   1.87954
   A29        1.86696  -0.00011   0.00570   0.00298   0.00873   1.87569
   A30        1.82433   0.00239   0.00074   0.00740   0.00843   1.83277
   A31        2.18551  -0.00315  -0.00037  -0.00724  -0.00990   2.17561
   A32        1.96133   0.00064  -0.00221   0.00869   0.00417   1.96550
   A33        2.13455   0.00259   0.00278   0.00539   0.00584   2.14039
   A34        1.93892  -0.00013   0.00553  -0.01261  -0.00695   1.93197
   A35        1.92990   0.00141   0.00286   0.00034   0.00333   1.93323
   A36        1.90100  -0.00112   0.00771  -0.02349  -0.01552   1.88548
   A37        1.86378   0.00107   0.00566  -0.00561   0.00005   1.86383
    D1        0.00708  -0.00014  -0.00159  -0.00342  -0.00501   0.00207
    D2       -3.12909  -0.00005  -0.00064  -0.00138  -0.00202  -3.13112
    D3       -3.14144  -0.00012  -0.00106  -0.00311  -0.00417   3.13758
    D4        0.00558  -0.00003  -0.00012  -0.00106  -0.00118   0.00440
    D5        0.00400  -0.00008  -0.00100  -0.00165  -0.00264   0.00136
    D6        3.13453   0.00009   0.00062   0.00261   0.00323   3.13775
    D7       -3.13065  -0.00010  -0.00152  -0.00196  -0.00348  -3.13413
    D8       -0.00013   0.00007   0.00009   0.00230   0.00239   0.00226
    D9       -0.01520   0.00028   0.00386   0.00660   0.01045  -0.00475
   D10        3.12316  -0.00006  -0.00230  -0.00165  -0.00393   3.11923
   D11        3.12098   0.00019   0.00292   0.00455   0.00745   3.12843
   D12       -0.02385  -0.00015  -0.00324  -0.00370  -0.00693  -0.03077
   D13        0.01255  -0.00022  -0.00363  -0.00483  -0.00845   0.00410
   D14       -3.12246  -0.00032  -0.00774  -0.00150  -0.00925  -3.13171
   D15       -3.12574   0.00012   0.00252   0.00359   0.00611  -3.11963
   D16        0.02244   0.00002  -0.00159   0.00691   0.00531   0.02775
   D17        0.51665   0.00033  -0.00978   0.02658   0.01685   0.53350
   D18        2.57780   0.00078  -0.00461   0.02073   0.01612   2.59393
   D19       -1.54975  -0.00046  -0.01786   0.01849   0.00062  -1.54913
   D20       -2.62829  -0.00002  -0.01604   0.01803   0.00201  -2.62628
   D21       -0.56714   0.00043  -0.01087   0.01217   0.00129  -0.56586
   D22        1.58849  -0.00081  -0.02412   0.00994  -0.01422   1.57427
   D23       -0.00183   0.00002   0.00114  -0.00010   0.00104  -0.00079
   D24       -3.13470  -0.00007  -0.00022  -0.00128  -0.00149  -3.13619
   D25        3.13314   0.00013   0.00530  -0.00342   0.00187   3.13500
   D26        0.00027   0.00004   0.00394  -0.00460  -0.00067  -0.00040
   D27       -0.00658   0.00013   0.00121   0.00339   0.00460  -0.00199
   D28       -3.13710  -0.00004  -0.00040  -0.00087  -0.00128  -3.13838
   D29        3.12625   0.00022   0.00258   0.00456   0.00713   3.13339
   D30       -0.00427   0.00005   0.00096   0.00030   0.00126  -0.00301
   D31        0.83982   0.00067   0.01253   0.09353   0.10620   0.94602
   D32       -1.26125   0.00219   0.01393   0.11001   0.12388  -1.13737
   D33        2.93759   0.00153   0.02294   0.09489   0.11794   3.05553
   D34       -1.25043  -0.00084   0.00534   0.07877   0.08418  -1.16625
   D35        2.93168   0.00068   0.00673   0.09526   0.10186   3.03355
   D36        0.84734   0.00002   0.01574   0.08013   0.09593   0.94327
   D37        3.02038  -0.00105   0.00072   0.08541   0.08613   3.10651
   D38        0.91931   0.00047   0.00211   0.10189   0.10381   1.02312
   D39       -1.16503  -0.00019   0.01112   0.08676   0.09787  -1.06716
   D40       -0.79890   0.00005   0.02268   0.00321   0.02576  -0.77314
   D41        2.40610  -0.00153   0.01843  -0.11745  -0.09878   2.30732
   D42       -2.91679   0.00143   0.02143   0.02223   0.04346  -2.87333
   D43        0.28822  -0.00015   0.01717  -0.09843  -0.08108   0.20714
   D44        1.38316   0.00020   0.01370   0.01806   0.03153   1.41469
   D45       -1.69502  -0.00138   0.00945  -0.10259  -0.09301  -1.78803
   D46       -1.22810  -0.00095  -0.01501   0.03945   0.02455  -1.20355
   D47        0.88484  -0.00151   0.00114   0.00152   0.00263   0.88747
   D48        0.89541   0.00030  -0.00458   0.03284   0.02836   0.92377
   D49        3.00835  -0.00026   0.01157  -0.00509   0.00644   3.01479
   D50        2.89073   0.00195   0.00051   0.03036   0.03089   2.92162
   D51       -1.27952   0.00139   0.01666  -0.00757   0.00897  -1.27055
   D52        3.06580   0.00060   0.00145   0.05748   0.05938   3.12518
   D53       -0.01451  -0.00069  -0.00258  -0.05860  -0.06162  -0.07612
         Item               Value     Threshold  Converged?
 Maximum Force            0.004051     0.000450     NO 
 RMS     Force            0.001181     0.000300     NO 
 Maximum Displacement     0.607391     0.001800     NO 
 RMS     Displacement     0.114103     0.001200     NO 
 Predicted change in Energy=-7.005576D-04
 GradGradGradGradGradGradGradGradGradGradGradGradGradGradGradGradGradGrad

                          Input orientation:                          
 ---------------------------------------------------------------------
 Center     Atomic      Atomic             Coordinates (Angstroms)
 Number     Number       Type             X           Y           Z
 ---------------------------------------------------------------------
      1          6           0       -2.954891   -0.755067    0.743478
      2          6           0       -1.708558   -1.265660    0.370779
      3          6           0       -0.831830   -0.521666   -0.434491
      4          6           0       -1.240397    0.751397   -0.863820
      5          6           0       -2.486395    1.265276   -0.493844
      6          6           0       -3.347804    0.515012    0.311898
      7          1           0       -3.619656   -1.351059    1.365119
      8          1           0       -1.415704   -2.260589    0.704199
      9          1           0       -0.579689    1.340187   -1.496084
     10          1           0       -2.786452    2.251719   -0.841077
     11          1           0       -4.318446    0.914493    0.596833
     12          6           0        0.527946   -1.083910   -0.802738
     13          1           0        0.468002   -2.178225   -0.856015
     14          1           0        0.836709   -0.723745   -1.790889
     15          6           0        1.657101   -0.756856    0.209325
     16          1           0        1.351065   -1.077392    1.209682
     17          6           0        1.957513    0.739980    0.273020
     18          7           0        2.947668   -1.391392   -0.080878
[...]
 98519,0.00418845,0.00093475,0.00490609,0.42870156,0.00040652,-0.000533
 47,-0.00021283,-0.00076112,0.00022559,0.00094476,0.00900150,0.00185975
 ,0.01002525,0.00183733,-0.00098353,-0.00077812,-0.00086938,-0.00082689
 ,-0.00040292,0.00017572,0.00050852,-0.00027236,0.00000672,-0.00002295,
 -0.00001849,-0.00014637,0.00010012,-0.00012341,0.00034420,0.00017082,0
 .00057747,0.00011751,-0.00002695,0.00003252,0.00003045,0.00004657,0.00
 005988,-0.00515186,-0.08144744,-0.00594073,-0.02488576,-0.00838149,-0.
 02661987,0.00893777,0.00249134,0.00785578,0.01366073,0.51221309,-0.000
 78226,0.00030037,-0.00088699,0.00295125,-0.00163611,-0.00122789,0.0014
 7748,0.00747629,0.01209950,0.00168445,-0.00112389,-0.00059836,-0.00027
 463,-0.00033234,-0.00039714,0.00078147,-0.00054053,0.00010214,0.000232
 02,-0.00001984,-0.00009134,0.00034148,0.00082395,0.00026320,-0.0000013
 4,0.00003844,0.00026664,0.00020134,-0.00011672,-0.00002037,0.00003727,
 0.00003213,0.00002226,-0.02169219,-0.01363329,-0.11773576,-0.00458960,
 -0.00087492,-0.00574218,-0.02363809,-0.00667666,-0.02501072,-0.0871598
 2,-0.05433104,0.58509956,-0.00038617,0.00021332,0.00022512,0.00030443,
 0.00017890,0.00002763,0.00192892,-0.00031637,-0.00033273,-0.00030415,0
 .00058324,0.00011679,0.00037343,-0.00005567,-0.00022873,-0.00002654,-0
 .00035207,0.00020175,-0.00002280,0.00000322,-0.00001317,-0.00028185,-0
 .00034308,-0.00009602,0.00000886,-0.00012232,0.00004139,-0.00000161,-0
 .00000516,-0.00000409,-0.00000688,-0.00003714,0.00000371,0.00429269,0.
 00883124,-0.02255936,0.00093423,-0.00008707,0.00104789,-0.00341959,-0.
 00088418,-0.00363657,-0.06453017,-0.02465982,0.05820318,0.08318921,0.0
 0002477,-0.00004632,-0.00000934,0.00008624,0.00007273,-0.00019665,0.00
 020543,-0.00009933,0.00017067,-0.00001826,0.00003117,0.00014209,0.0000
 6341,0.00003305,0.00000300,0.00001795,-0.00003886,0.00001440,-0.000002
 60,0.00000975,0.00000459,-0.00011773,-0.00000190,0.00000909,-0.0000419
 7,-0.00000595,-0.00006467,-0.00001271,0.00000061,-0.00001153,-0.000003
 82,-0.00000657,-0.00000381,0.00016712,0.00364996,-0.00686436,0.0007726
 4,0.00067394,0.00016282,-0.00111138,0.00046040,-0.00128409,-0.02625781
 ,-0.08957441,0.08462559,0.02644175,0.09478965,-0.00034141,0.00014414,0
 .00023889,0.00003180,0.00048521,0.00005638,0.00116573,-0.00082548,0.00
 029429,-0.00046859,0.00062432,0.00005678,0.00042228,-0.00009047,-0.000
 13593,-0.00012764,-0.00029003,0.00020249,-0.00002557,0.00001855,0.0000
 0956,-0.00016695,-0.00035726,0.00005499,-0.00000737,-0.00012669,0.0000
 1400,-0.00001062,-0.00000410,-0.00000917,0.00000069,-0.00003934,0.0000
 0367,0.00224903,0.00878591,-0.02060654,0.00044508,-0.00044551,0.000944
 05,-0.00308791,-0.00129879,-0.00173837,0.06426953,0.08985593,-0.260142
 20,-0.06906839,-0.09096013,0.28109266,0.00014341,-0.00038492,0.0000323
 1,-0.00041202,0.00003490,0.00103916,0.00008202,-0.00099615,-0.00003596
 ,0.00032013,0.00095074,-0.00056014,-0.00078226,0.00013736,0.00040102,0
 .00004256,0.00045999,-0.00018996,-0.00002011,-0.00001204,-0.00005968,0
 .00005367,0.00003071,-0.00015390,-0.00007768,-0.00017189,-0.00004648,0
 .00001538,-0.00007737,-0.00005048,0.00002639,-0.00001171,-0.00001088,-
 0.00582095,-0.02763980,-0.00584825,-0.00364601,-0.00014164,-0.00339317
 ,0.00113168,0.00061941,0.00166306,-0.08092731,-0.02065010,-0.00461799,
 -0.00255997,-0.00931060,-0.00090110,0.33408022,-0.00038257,-0.00008643
 ,0.00010698,0.00091866,-0.00040065,-0.00044763,-0.00411689,0.00177027,
 0.00105140,0.00070774,0.00017740,-0.00185379,0.00015488,-0.00072865,-0
 .00016432,0.00066479,-0.00043223,-0.00011549,0.00018636,0.00000672,-0.
 00007623,-0.00023795,-0.00028046,0.00035653,0.00023359,0.00008770,0.00
 111883,0.00033001,-0.00019209,0.00008626,0.00011409,-0.00006060,0.0000
 8646,-0.01385728,-0.00276081,-0.01053270,0.00209557,0.00120160,0.00342
 925,0.00113367,0.00035485,0.00292425,-0.01151598,-0.17643546,-0.005170
 71,-0.00198437,-0.00841557,-0.00182219,0.14827708,0.73307476,0.0007351
 8,-0.00017344,-0.00049110,0.00001037,0.00011785,-0.00049433,-0.0008327
 6,0.00055502,0.00015700,-0.00062667,-0.00191981,0.00133139,-0.00002250
 ,0.00026609,-0.00027313,0.00047428,0.00005185,-0.00054495,0.00018844,0
 .00008299,0.00000402,0.00002129,0.00016927,0.00013361,-0.00070365,0.00
 066193,-0.00106998,0.00004319,0.00000559,0.00016606,0.00018009,0.00006
 529,-0.00002765,-0.00654205,-0.02276984,-0.00235556,-0.00265730,-0.000
 62781,-0.00361852,-0.00077629,-0.00164153,-0.00261768,-0.00689898,-0.0
 1512343,-0.07851529,0.00514495,0.03388322,0.00159497,-0.21000152,-0.14
 203828,0.73793598,0.00021605,0.00016109,0.00039914,-0.00080036,0.00091
 522,0.00017837,-0.00128947,-0.00302738,-0.00771179,-0.00174815,0.00022
 062,0.00112535,0.00038711,0.00057231,0.00027039,-0.00055165,0.00011643
 ,0.00009990,-0.00020899,0.00000374,0.00013144,0.00000451,-0.00021970,-
 0.00022224,-0.00001828,-0.00011250,-0.00036886,-0.00023370,0.00018231,
 -0.00001064,-0.00013822,0.00001019,-0.00003156,-0.04282724,0.01707183,
 0.00622563,0.00281473,0.00058528,0.00294698,0.00287107,0.00058092,0.00
 111177,-0.17249702,0.02799153,0.02304032,-0.01741254,0.00867743,0.0062
 2113,-0.00068566,0.01151570,0.00258137,0.34274021,0.00018712,-0.000254
 01,-0.00018850,-0.00000253,-0.00012065,-0.00003290,-0.00066465,0.00212
 236,0.00001317,0.00000106,-0.00021305,0.00014919,-0.00036370,0.0002199
 7,0.00014077,0.00011025,0.00022932,-0.00018990,0.00001331,-0.00001517,
 -0.00003416,0.00013500,0.00013926,0.00009595,-0.00008100,0.00000622,-0
 .00016445,-0.00003275,0.00000480,0.00000515,0.00001680,0.00001615,-0.0
 0000478,0.00356191,0.00222998,0.00081334,-0.00038606,0.00242332,0.0006
 0897,-0.00044524,-0.00048088,-0.00077695,0.05975778,-0.11817485,0.0122
 8207,-0.01102526,0.00756615,0.00111636,0.03765691,-0.02456555,-0.00702
 145,0.00414261,0.66213593,-0.00008087,0.00012182,0.00051250,-0.0005684
 5,0.00072777,-0.00001553,-0.00216104,-0.00153120,-0.00204102,-0.000647
 93,0.00025205,0.00045196,0.00023282,0.00019194,0.00004626,-0.00021432,
 -0.00008655,0.00006230,-0.00013602,0.00001306,0.00004557,-0.00011955,-
 0.00037801,-0.00013294,0.00003149,-0.00007113,-0.00012736,-0.00010531,
 0.00005399,-0.00001290,-0.00004619,-0.00001967,-0.00001002,-0.01853682
 ,0.00778183,0.00748389,0.00084465,0.00116175,0.00060366,0.00065360,-0.
 00010413,0.00299129,0.06532162,-0.00361423,-0.08209779,0.02901816,-0.0
 1529295,-0.00495510,0.00339060,-0.00620890,-0.00270085,-0.19391291,-0.
 07086233,0.44087410,-0.00005152,0.00004373,0.00003863,0.00013249,-0.00
 004672,-0.00010174,-0.00033256,-0.00051823,0.00042269,0.00029104,-0.00
 004808,-0.00020272,0.00005498,-0.00007207,0.00001374,0.00006517,-0.000
 07760,0.00000650,0.00003749,0.00000968,-0.00001461,-0.00006589,-0.0000
 0895,0.00004371,-0.00001951,0.00001363,0.00002728,0.00004539,-0.000036
 75,-0.00000126,0.00002179,-0.00001596,-0.00000635,0.00194570,0.0018034
 0,0.00043623,-0.00086985,-0.00102008,-0.00050252,-0.00006256,-0.000157
 33,-0.00018022,-0.00133099,0.04030395,0.00268697,0.00088228,-0.0007088
 8,0.00012586,-0.00717099,-0.00043942,0.00222446,-0.04392001,-0.0619031
 2,0.02055483,0.05069605,0.00001613,0.00000002,0.00002774,-0.00006891,0
 .00004072,0.00001356,-0.00002532,0.00027005,-0.00042952,-0.00022783,0.
 00002474,0.00014470,0.00001810,0.00006886,-0.00002756,-0.00003504,0.00
 001229,0.00000925,-0.00002198,-0.00000087,0.00000810,0.00001271,-0.000
 00865,-0.00001739,0.00000245,-0.00000972,-0.00003871,-0.00003040,0.000
 01860,0.00000202,-0.00001140,0.00000130,-0.00000220,-0.00190587,0.0013
 3663,0.00080308,0.00077466,0.00038473,0.00062944,0.00013678,-0.0000687
 6,0.00007152,-0.00534522,-0.01416728,-0.00337912,0.00008718,0.00040483
 ,-0.00024045,0.00283530,0.00004079,-0.00091587,-0.02936321,-0.41291236
 ,-0.02825140,0.03486936,0.43882601,-0.00003244,0.00002485,-0.00007281,
 0.00016174,-0.00019058,0.00005526,-0.00039713,-0.00010392,0.00010337,0
 .00016608,-0.00002925,-0.00011724,-0.00000741,-0.00000407,-0.00001190,
 0.00006208,-0.00003010,0.00001225,0.00004294,0.00000343,-0.00001374,0.
 00001856,0.00006846,0.00001340,-0.00002030,0.00002820,-0.00001178,0.00
 002406,-0.00001981,-0.00000093,0.00001587,0.00000016,-0.00000572,0.000
 36957,0.00128948,0.00022362,-0.00025884,-0.00009353,0.00043816,-0.0000
 8551,0.00026027,-0.00009746,-0.00423623,-0.00987535,-0.00177427,-0.000
 04641,-0.00016254,-0.00031875,0.00331897,0.00153097,-0.00085577,0.0196
 1908,-0.06918164,-0.04421397,-0.01902759,0.04003666,0.04245105,0.00011
 548,-0.00003693,-0.00010936,0.00018731,-0.00024572,-0.00012325,-0.0002
 2560,0.00082150,-0.00030282,0.00015269,-0.00019492,-0.00008736,-0.0001
 2413,0.00001157,0.00006203,0.00008436,0.00007394,-0.00007994,0.0000516
 4,-0.00000717,-0.00002575,0.00002900,0.00007751,0.00005575,-0.00003319
 ,0.00005491,0.00000439,0.00003392,-0.00002156,0.00001600,0.00002566,-0
 .00000051,-0.00000401,0.00183456,-0.00119784,0.00198385,-0.00021067,-0
 .00008225,-0.00017970,-0.00070318,0.00037129,-0.00124877,-0.01706247,-
 0.01326577,0.03265183,-0.00418513,0.00305057,0.00045057,0.00035990,-0.
 00056692,0.00175678,-0.06678346,-0.02724089,0.09694015,-0.00270266,-0.
 00193992,0.00186884,0.08904915,-0.00004275,0.00001363,0.00001384,0.000
 10028,-0.00004814,-0.00004420,-0.00012889,0.00013890,0.00012926,0.0000
 8916,0.00003467,-0.00013881,0.00001020,-0.00007735,-0.00002615,0.00004
 062,-0.00003545,0.00000265,0.00001608,-0.00000186,-0.00000648,-0.00001
 303,-0.00004027,0.00002115,0.00002942,-0.00000362,0.00008812,0.0000292
 1,-0.00001242,0.00000956,0.00000879,-0.00000490,0.00000820,0.00046886,
 -0.00026787,-0.00006673,-0.00026988,-0.00017548,0.00011963,-0.00008800
 ,0.00029410,0.00026987,0.00571146,0.00786178,-0.01593592,0.00384514,-0
 .00136940,-0.00155862,0.00283654,0.00234370,-0.00593662,-0.03740350,-0
 .11569590,0.11539359,-0.01384913,-0.01381958,0.03801508,0.04108331,0.1
 2133135,0.00001288,-0.00006726,-0.00003003,-0.00002144,0.00004372,-0.0
 0000170,-0.00044045,0.00016418,-0.00018410,0.00001482,-0.00005210,-0.0
 0004772,-0.00004712,-0.00000953,0.00001554,0.00002773,0.00003982,-0.00
 001666,0.00000777,0.00000144,-0.00000347,-0.00001136,-0.00002997,0.000
 01429,0.00000185,0.00001241,0.00003112,0.00000903,-0.00000519,0.000007
 86,0.00000905,-0.00000271,0.00000078,-0.00124744,-0.00020179,0.0022707
 4,0.00002776,0.00000305,0.00002948,0.00038837,0.00036349,0.00029433,-0
 .00213616,0.00235632,-0.01131437,0.00261980,-0.00184360,0.00090962,0.0
 0189859,0.00153584,-0.00249867,0.13875661,0.13996254,-0.31848071,-0.00
 645798,-0.00757847,0.00406123,-0.13164196,-0.13429215,0.32333364,-0.00
 002549,0.00003401,-0.00003517,-0.00004101,-0.00004586,-0.00006646,0.00
 012572,-0.00001561,-0.00018299,-0.00035554,0.00009757,-0.00047155,0.00
 013401,-0.00029633,-0.00003035,-0.00003206,-0.00005317,0.00005124,-0.0
 0001154,-0.00000719,0.00003871,0.00002630,0.00002347,0.00003122,-0.000
 02875,-0.00014448,0.00045604,-0.00000143,0.00003993,0.00000287,-0.0000
 4360,0.00001037,0.00004172,0.00196465,0.00257840,0.00117421,0.00024764
 ,-0.00014535,0.00039235,-0.00032969,0.00012350,-0.00009366,0.00728012,
 -0.01116510,0.01398686,0.00114925,-0.00224151,-0.00053370,-0.16365982,
 -0.14631543,0.17000341,0.00070940,-0.00055835,0.00016797,0.00167821,0.
 00025973,-0.00092616,-0.00023362,-0.00208477,-0.00166133,0.14498305,0.
 00032810,0.00000557,-0.00020823,-0.00064863,0.00010961,0.00013075,0.00
 170333,-0.00080225,-0.00054325,-0.00051113,-0.00033836,0.00117953,-0.0
 0004195,0.00038909,0.00002318,-0.00022865,0.00020916,-0.00002854,-0.00
 005579,0.00001797,0.00004471,0.00019169,0.00028637,-0.00015775,-0.0001
 5443,-0.00004197,-0.00071484,-0.00019662,0.00011339,-0.00002523,-0.000
 03504,0.00005240,-0.00004211,0.00250820,-0.00227074,0.00284525,-0.0009
 8128,0.00021937,-0.00123703,-0.00006434,0.00013009,-0.00065555,-0.0207
 5868,-0.02173696,0.03559221,-0.00123531,-0.00915747,-0.00134042,-0.141
 68128,-0.33813747,0.25026570,-0.00188159,0.00033909,0.00113242,0.00031
 345,0.00048645,-0.00035860,-0.00068557,-0.00019862,-0.00011139,0.16616
 046,0.33063983,-0.00038959,0.00002083,0.00028209,0.00013701,0.00008268
 ,0.00022714,-0.00004854,-0.00036725,0.00033266,0.00031144,0.00107264,-
 0.00108492,-0.00002692,-0.00032373,0.00015429,-0.00015328,-0.00001591,
 0.00024854,-0.00008722,-0.00004642,-0.00001543,-0.00008098,-0.00018445
 ,-0.00003184,0.00023661,-0.00037530,0.00064925,0.00001871,-0.00003203,
 -0.00008840,-0.00008133,-0.00004534,0.00002897,-0.00149314,0.00151535,
 -0.00285355,0.00023138,-0.00040777,0.00167445,0.00060614,0.00006086,0.
 00235623,0.00961400,0.01204614,0.00009117,-0.00022017,-0.00086207,0.00
 139798,0.17215026,0.26443372,-0.41313111,0.00140076,-0.00271437,0.0003
 7044,-0.00066569,-0.00047804,0.00088209,-0.00152759,0.00207767,0.00107
 854,-0.22428323,-0.30144145,0.49557088,0.00006761,0.00008795,-0.000082
 39,0.00023357,0.00005814,-0.00052987,-0.00115932,0.00012152,-0.0005274
 0,-0.00046648,-0.00087320,0.00008656,0.00030478,-0.00022179,-0.0002904
 6,0.00021198,-0.00016327,-0.00006201,0.00002568,0.00000287,0.00002594,
 0.00000973,-0.00002443,0.00009213,-0.00006673,0.00020469,0.00003846,0.
 00004971,0.00002632,0.00007279,0.00001351,0.00002289,0.00002170,-0.001
 55440,0.00165524,-0.00014241,0.00038275,-0.00012546,0.00036002,0.00000
 096,-0.00017822,-0.00037204,0.01019505,-0.00149687,0.00061865,0.000076
 65,0.00034427,-0.00066088,-0.07715193,-0.00037889,0.04623924,-0.000122
 40,-0.00141836,-0.00005396,0.00048518,0.00003616,-0.00034425,0.0001813
 9,-0.00044301,-0.00015902,0.01231493,-0.00082203,0.04603766,0.09404434
 ,0.00011840,-0.00006340,0.00002947,-0.00043834,0.00013338,0.00025944,0
 .00154839,-0.00089792,-0.00057828,-0.00000843,0.00043503,0.00032589,-0
 .00018795,0.00020584,0.00017584,-0.00033492,0.00026297,0.00015432,-0.0
 0010411,-0.00002938,0.00001782,0.00009415,0.00007923,-0.00013152,0.000
 05491,-0.00017143,-0.00016017,-0.00013300,0.00006378,-0.00009365,-0.00
 009544,0.00000268,-0.00003738,0.00112620,-0.00423489,0.00023788,-0.001
 33825,-0.00048538,-0.00108866,-0.00008369,0.00018025,-0.00018498,0.006
 51005,-0.01552981,-0.03450070,0.00077580,0.00025070,-0.00172416,0.0099
 4578,-0.15942546,-0.07929367,-0.00113764,-0.00476963,-0.00032697,0.001
 40612,-0.00093590,-0.00103353,-0.00010117,0.00003648,-0.00019596,-0.00
 496976,0.03769255,0.01785103,0.07730044,0.59448307,-0.00015898,-0.0000
 2922,0.00022565,-0.00019551,0.00018685,0.00036341,0.00101341,-0.000538
 89,-0.00037035,0.00001640,0.00057034,-0.00044978,0.00000100,-0.0000792
 3,0.00014849,-0.00030362,0.00016530,0.00024061,-0.00015246,-0.00006689
 ,0.00000693,0.00002619,-0.00009250,-0.00012460,0.00030964,-0.00022489,
 0.00032528,-0.00006073,0.00003287,-0.00008751,-0.00012913,-0.00002243,
 -0.00000736,0.00087450,-0.00099902,0.00000370,-0.00061923,-0.00027101,
 -0.00009398,0.00030752,0.00033834,0.00077120,0.00523301,-0.00653690,-0
 .00829194,-0.00041642,-0.00165042,0.00070445,0.05058142,-0.05300889,-0
 .23222261,-0.00156947,-0.00273379,0.00145511,0.00020429,-0.00021780,-0
 .00050030,-0.00049678,0.00204258,0.00054202,0.04375518,0.00801641,-0.0
 9086215,-0.10666215,0.06222580,0.37419042,0.00003456,-0.00001637,-0.00
 000448,-0.00005789,-0.00004362,-0.00004727,0.00000411,-0.00017166,0.00
 001587,0.00013872,0.00011242,0.00003437,-0.00004629,0.00017145,0.00011
 926,-0.00010571,0.00005342,0.00009944,0.00000298,0.00000728,-0.0000161
 0,0.00000518,0.00005699,-0.00001048,0.00000214,-0.00005808,-0.00015694
 ,-0.00006325,-0.00000268,-0.00007109,-0.00001269,-0.00001402,-0.000026
 84,-0.00033344,0.00127374,0.00000351,0.00022638,0.00011935,0.00030719,
 -0.00001371,-0.00001952,0.00006588,0.00641896,0.00023823,0.00386133,-0
 .00000253,-0.00002432,0.00001842,0.00665934,0.01346356,-0.00054134,-0.
 00050593,-0.00146083,-0.00057253,0.00019075,-0.00007345,-0.00028554,0.
 00015906,0.00005390,0.00005002,-0.00585072,-0.00122291,-0.00168628,-0.
 03807656,-0.08994757,0.00844190,0.03122654,0.00001745,0.00001357,0.000
 00409,-0.00001010,-0.00004438,0.00004417,-0.00004087,0.00006593,0.0000
 1892,0.00001707,-0.00004513,0.00008224,-0.00004943,0.00007285,-0.00000
 870,-0.00000576,0.00001226,-0.00003395,0.00000562,0.00000169,-0.000004
 80,-0.00000742,-0.00001354,-0.00001602,-0.00004526,0.00005264,-0.00005
 579,0.00002647,-0.00001603,0.00002960,0.00002414,0.00000295,-0.0000046
 0,0.00032511,-0.00104618,-0.00005149,-0.00014789,-0.00002586,-0.000247
 81,-0.00005482,-0.00003745,-0.00012301,-0.00058014,0.00236391,-0.00289
 925,0.00014801,0.00077283,0.00009321,-0.00270721,-0.02713635,-0.008663
 06,0.00039832,-0.00023050,-0.00008272,0.00013898,0.00000709,-0.0001746
 2,0.00004255,-0.00030377,-0.00009271,-0.00128452,0.00199289,0.00813322
 ,-0.07371496,-0.44728276,-0.00710663,0.07750468,0.47082334,0.00003055,
 0.00003515,-0.00001260,-0.00003907,-0.00004379,0.00001680,0.00004337,-
 0.00006581,-0.00004362,0.00002750,0.00004319,0.00018683,-0.00006134,0.
 00009555,0.00003295,-0.00001840,-0.00000857,-0.00004631,0.00002679,0.0
 0002194,-0.00001014,-0.00001071,0.00000870,-0.00001652,-0.00004566,-0.
 00000978,-0.00020761,-0.00001984,-0.00000815,0.00000640,0.00004068,-0.
 00000156,-0.00000705,-0.00026156,-0.00031336,0.00020019,-0.00007285,-0
 .00001362,-0.00006262,0.00001915,-0.00003358,-0.00002000,0.00396561,0.
 00009564,-0.00409787,-0.00002832,0.00019068,0.00033127,-0.00860588,-0.
 05522137,0.00009417,-0.00028077,-0.00128230,-0.00010889,0.00037548,-0.
 00016955,-0.00024578,0.00003710,-0.00018551,-0.00001175,-0.00181721,0.
 00763425,0.00272270,0.01629370,0.03807214,-0.04596670,-0.00959829,0.01
 115972,0.04726614||0.00000498,-0.00000592,0.00000032,-0.00000677,-0.00
 000150,0.00000390,0.00001111,0.00001695,-0.00001055,0.00000069,-0.0000
 1488,0.00000334,-0.00000486,0.00000030,0.00000229,0.00000137,0.0000035
 5,-0.00000263,-0.00000015,-0.00000138,-0.00000015,-0.00000078,-0.00000
 153,0.00000056,0.00000007,0.00000301,-0.00000162,0.00000060,0.00000099
 ,0.00000034,-0.00000108,0.00000056,-0.00000079,-0.00000281,-0.00000038
 ,0.00001618,0.00000192,0.00000050,-0.00000425,-0.00000057,0.00000115,-
 0.00000415,-0.00000535,-0.00000601,-0.00000723,0.00000031,0.00000194,0
 .00000165,0.00001675,0.00001066,-0.00002911,-0.00000812,0.00000333,0.0
 0000107,0.00000233,0.00000154,-0.00000204,0.00000225,-0.00000392,0.000
 00161,-0.00000704,-0.00000854,0.00001949,-0.00000431,0.00000922,0.0000
 1166,-0.00000055,-0.00000965,0.00000009|||@


 EXPERIMENTALISTS THINK SILICON IS REALLY FUN TO USE
     ITS PLACE IN NOVEL COMPOUNDS IS CERTAIN TO AMUSE
 THEY SIT ALL DAY IN LABORATORIES MAKING ALL THIS SLUDGE
     "LOADED WITH THE SILICON THEY SAY", TO ME IT LOOKS LIKE FUDGE.
 FOR HAPPY THOUGH THEY BE WITH CRUD, I'D LIKE TO KNOW A LITTLE
      ABOUT THE PI BONDS ON THE EDGE AND SIGMAS IN THE MIDDLE.

 SO LETS DERIVE A WAVEFUNCTION.....6-31G*
     USE AN OPTIMAL GEOMETRY AND SEE WHERE ELECTRONS ARE.
 BUT WHAT OF CORRELATION?  ASKS THE WIRY LITTLE SKEPTIC.
     WE'LL THROW IN PERTURBATION AS AN ELECTRON ANTISEPTIC.
 AND WHEN THE PROGRAM GIVES US ANSWERS IN THEM WE CAN TRUST
     SINCE NOBODY CAN MAKE THE STUFF, WE HAVE NO CHOICE, WE MUST.

 SO THEORY GUYS HAVE GOT IT MADE, IN ROOMS FREE OF POLLUTION.
     INSTEAD OF PROBLEMS WITH THE REFLUX, THEY HAVE ONLY SOLUTIONS.
 AND WHEN THE FEDS ANNOUNCE THE LIST OF CARCINOGENIC TERRORS,
     THE THEORISTS SIT SAFELY AT THEIR TERMINALS FIXING ERRORS.
 IN OTHER WORDS, EXPERIMENTALISTS WILL LIKELY DIE OF CANCER
     FROM WORKING HARD YET FRUITLESSLY...TILL THEORY GIVES THE ANSWER.
          -- THOMAS A. HOLME, 1983
 Job cpu time:       0 days  0 hours 21 minutes 43.0 seconds.
 Elapsed time:       0 days  0 hours 21 minutes 41.7 seconds.
 File lengths (MBytes):  RWF=    165 Int=      0 D2E=      0 Chk=      7 Scr=      1
 Normal termination of Gaussian 16 at Fri Sep 11 09:40:42 2020.
