 Entering Link 1 = C:\G16W\l1.exe PID=      6268.
  
 Copyright (c) 1988-2017, Gaussian, Inc.  All Rights Reserved.
  
 This is part of the Gaussian(R) 16 program.  It is based on
 the Gaussian(R) 09 system (copyright 2009, Gaussian, Inc.),
 the Gaussian(R) 03 system (copyright 2003, Gaussian, Inc.),
 the Gaussian(R) 98 system (copyright 1998, Gaussian, Inc.),
 the Gaussian(R) 94 system (copyright 1995, Gaussian, Inc.),
 the Gaussian 92(TM) system (copyright 1992, Gaussian, Inc.),
 the Gaussian 90(TM) system (copyright 1990, Gaussian, Inc.),
 the Gaussian 88(TM) system (copyright 1988, Gaussian, Inc.),
 the Gaussian 86(TM) system (copyright 1986, Carnegie Mellon
 University), and the Gaussian 82(TM) system (copyright 1983,
 Carnegie Mellon University). Gaussian is a federally registered
 trademark of Gaussian, Inc.
  
 This software contains proprietary and confidential information,
 including trade secrets, belonging to Gaussian, Inc.
  
 This software is provided under written license and may be
 used, copied, transmitted, or stored only in accord with that
 written license.
  
 The following legend is applicable only to US Government
 contracts under FAR:
  
                    RESTRICTED RIGHTS LEGEND
  
 Use, reproduction and disclosure by the US Government is
 subject to restrictions as set forth in subparagraphs (a)
 and (c) of the Commercial Computer Software - Restricted
 Rights clause in FAR 52.227-19.
  
 Gaussian, Inc.
 340 Quinnipiac St., Bldg. 40, Wallingford CT 06492
  
  
 ---------------------------------------------------------------
 Warning -- This program may not be used in any manner that
 competes with the business of Gaussian, Inc. or will provide
 assistance to any competitor of Gaussian, Inc.  The licensee
 of this program is prohibited from giving any competitor of
 Gaussian, Inc. access to this program.  By using this program,
 the user acknowledges that Gaussian, Inc. is engaged in the
 business of creating and licensing software in the field of
 computational chemistry and represents and warrants to the
 licensee that it is not a competitor of Gaussian, Inc. and that
 it will not use this program in any manner prohibited above.
 ---------------------------------------------------------------
  

 Cite this work as:
 Gaussian 16, Revision B.01,
 M. J. Frisch, G. W. Trucks, H. B. Schlegel, G. E. Scuseria, 
 M. A. Robb, J. R. Cheeseman, G. Scalmani, V. Barone, 
 G. A. Petersson, H. Nakatsuji, X. Li, M. Caricato, A. V. Marenich, 
 J. Bloino, B. G. Janesko, R. Gomperts, B. Mennucci, H. P. Hratchian, 
 J. V. Ortiz, A. F. Izmaylov, J. L. Sonnenberg, D. Williams-Young, 
 F. Ding, F. Lipparini, F. Egidi, J. Goings, B. Peng, A. Petrone, 
 T. Henderson, D. Ranasinghe, V. G. Zakrzewski, J. Gao, N. Rega, 
 G. Zheng, W. Liang, M. Hada, M. Ehara, K. Toyota, R. Fukuda, 
 J. Hasegawa, M. Ishida, T. Nakajima, Y. Honda, O. Kitao, H. Nakai, 
 T. Vreven, K. Throssell, J. A. Montgomery, Jr., J. E. Peralta, 
 F. Ogliaro, M. J. Bearpark, J. J. Heyd, E. N. Brothers, K. N. Kudin, 
 V. N. Staroverov, T. A. Keith, R. Kobayashi, J. Normand, 
 K. Raghavachari, A. P. Rendell, J. C. Burant, S. S. Iyengar, 
 J. Tomasi, M. Cossi, J. M. Millam, M. Klene, C. Adamo, R. Cammi, 
 J. W. Ochterski, R. L. Martin, K. Morokuma, O. Farkas, 
 J. B. Foresman, and D. J. Fox, Gaussian, Inc., Wallingford CT, 2016.
 
 ******************************************
 Gaussian 16:  EM64W-G16RevB.01 16-Dec-2017
                10-Sep-2020 
 ******************************************
 %nprocshared = 6
 Will use up to    6 processors via shared memory.
 %chk=C:\Users\no83wec\Documents\BA_projektmodul\2020_09_10\tetrachlormethane\tet
 rachlormethane.chk
 ---------------------------------------------------------------
 # freq(raman, printderivatives) b3lyp/6-31+G* geom=connectivity
 ---------------------------------------------------------------
 1/10=4,30=1,38=1,57=2/1,3;
 2/12=2,17=6,18=5,40=1/2;
 3/5=1,6=6,7=11,11=2,25=1,30=1,71=2,74=-5,140=1/1,2,3;
 4//1;
 5/5=2,38=5,98=1/2;
 8/6=4,10=90,11=11/1;
 10/13=10,15=4/2;
 11/6=3,8=1,9=11,15=111,16=1/1,2,10;
 10/6=1/2;
 6/7=2,8=2,9=2,10=2,28=1/1;
 7/8=1000001,10=1,25=1/1,2,3,16;
 1/10=4,30=1/3;
 99//99;
 -----------
 Ramantensor
 -----------
 Symbolic Z-matrix:
 Charge =  0 Multiplicity = 1
 C                     0.        0.        0. 
 Cl                    1.03509   1.03509   1.03509 
 Cl                   -1.03509  -1.03509   1.03509 
 Cl                   -1.03509   1.03509  -1.03509 
 Cl                    1.03509  -1.03509  -1.03509 
 

 GradGradGradGradGradGradGradGradGradGradGradGradGradGradGradGradGradGrad
 Berny optimization.
 Initialization pass.
 Trust Radius=3.00D-01 FncErr=1.00D-07 GrdErr=1.00D-07 EigMax=2.50D+02 EigMin=1.00D-04
 Number of steps in this run=      2 maximum allowed number of steps=      2.
 GradGradGradGradGradGradGradGradGradGradGradGradGradGradGradGradGradGrad

                          Input orientation:                          
 ---------------------------------------------------------------------
 Center     Atomic      Atomic             Coordinates (Angstroms)
 Number     Number       Type             X           Y           Z
 ---------------------------------------------------------------------
      1          6           0        0.000000    0.000000    0.000000
      2         17           0        1.035088    1.035088    1.035088
      3         17           0       -1.035088   -1.035088    1.035088
      4         17           0       -1.035088    1.035088   -1.035088
      5         17           0        1.035088   -1.035088   -1.035088
 ---------------------------------------------------------------------
                    Distance matrix (angstroms):
                    1          2          3          4          5
     1  C    0.000000
     2  Cl   1.792825   0.000000
     3  Cl   1.792825   2.927672   0.000000
     4  Cl   1.792825   2.927672   2.927672   0.000000
     5  Cl   1.792825   2.927672   2.927672   2.927672   0.000000
 Stoichiometry    CCl4
 Framework group  TD[O(C),4C3(Cl)]
 Deg. of freedom     1
 Full point group                 TD      NOp  24
 Largest Abelian subgroup         D2      NOp   4
 Largest concise Abelian subgroup D2      NOp   4
                         Standard orientation:                         
 ---------------------------------------------------------------------
 Center     Atomic      Atomic             Coordinates (Angstroms)
 Number     Number       Type             X           Y           Z
 ---------------------------------------------------------------------
      1          6           0        0.000000    0.000000    0.000000
      2         17           0        1.035088    1.035088    1.035088
      3         17           0       -1.035088   -1.035088    1.035088
      4         17           0       -1.035088    1.035088   -1.035088
      5         17           0        1.035088   -1.035088   -1.035088
 ---------------------------------------------------------------------
 Rotational constants (GHZ):           1.6861300           1.6861300           1.6861300
 Standard basis: 6-31+G(d) (6D, 7F)
 There are    30 symmetry adapted cartesian basis functions of A   symmetry.
 There are    27 symmetry adapted cartesian basis functions of B1  symmetry.
 There are    27 symmetry adapted cartesian basis functions of B2  symmetry.
 There are    27 symmetry adapted cartesian basis functions of B3  symmetry.
 There are    30 symmetry adapted basis functions of A   symmetry.
 There are    27 symmetry adapted basis functions of B1  symmetry.
 There are    27 symmetry adapted basis functions of B2  symmetry.
 There are    27 symmetry adapted basis functions of B3  symmetry.
   111 basis functions,   256 primitive gaussians,   111 cartesian basis functions
    37 alpha electrons       37 beta electrons
       nuclear repulsion energy       433.8476555459 Hartrees.
 NAtoms=    5 NActive=    5 NUniq=    2 SFac= 4.00D+00 NAtFMM=   60 NAOKFM=F Big=F
 Integral buffers will be    131072 words long.
 Raffenetti 2 integral format.
 Two-electron integral symmetry is turned on.
 One-electron integrals computed using PRISM.
 NBasis=   111 RedAO= T EigKep=  5.60D-05  NBF=    30    27    27    27
 NBsUse=   111 1.00D-06 EigRej= -1.00D+00 NBFU=    30    27    27    27
 ExpMin= 4.38D-02 ExpMax= 2.52D+04 ExpMxC= 3.78D+03 IAcc=3 IRadAn=         5 AccDes= 0.00D+00
 Harris functional with IExCor=  402 and IRadAn=       5 diagonalized for initial guess.
 HarFok:  IExCor=  402 AccDes= 0.00D+00 IRadAn=         5 IDoV= 1 UseB2=F ITyADJ=14
 ICtDFT=  3500011 ScaDFX=  1.000000  1.000000  1.000000  1.000000
 FoFCou: FMM=F IPFlag=           0 FMFlag=      100000 FMFlg1=           0
         NFxFlg=           0 DoJE=T BraDBF=F KetDBF=T FulRan=T
         wScrn=  0.000000 ICntrl=       500 IOpCl=  0 I1Cent=   200000004 NGrid=           0
         NMat0=    1 NMatS0=      1 NMatT0=    0 NMatD0=    1 NMtDS0=    0 NMtDT0=    0
 Petite list used in FoFCou.
 Initial guess orbital symmetries:
       Occupied  (T2) (T2) (T2) (A1) (A1) (T2) (T2) (T2) (A1) (A1)
                 (T2) (T2) (T2) (T1) (T1) (T1) (E) (E) (T2) (T2)
                 (T2) (A1) (T2) (T2) (T2) (A1) (T2) (T2) (T2) (E)
                 (E) (T2) (T2) (T2) (T1) (T1) (T1)
       Virtual   (A1) (T2) (T2) (T2) (A1) (T2) (T2) (T2) (E) (E)
                 (T2) (T2) (T2) (A1) (T1) (T1) (T1) (T2) (T2) (T2)
                 (T2) (T2) (T2) (A1) (T2) (T2) (T2) (T2) (T2) (T2)
                 (E) (E) (A1) (A1) (T2) (T2) (T2) (T1) (T1) (T1)
                 (T2) (T2) (T2) (E) (E) (T1) (T1) (T1) (E) (E)
                 (T2) (T2) (T2) (T1) (T1) (T1) (A1) (T2) (T2) (T2)
                 (T2) (T2) (T2) (A1) (E) (E) (T2) (T2) (T2) (A1)
                 (T2) (T2) (T2) (A1)
 The electronic state of the initial guess is 1-A1.
 Keep R1 ints in memory in symmetry-blocked form, NReq=24947697.
 Requested convergence on RMS density matrix=1.00D-08 within 128 cycles.
 Requested convergence on MAX density matrix=1.00D-06.
 Requested convergence on             energy=1.00D-06.
 No special actions if energy rises.
 SCF Done:  E(RB3LYP) =  -1878.85987581     A.U. after    9 cycles
            NFock=  9  Conv=0.12D-08     -V/T= 2.0032
 DoSCS=F DFT=T ScalE2(SS,OS)=  1.000000  1.000000
 Range of M.O.s used for correlation:     1   111
 NBasis=   111 NAE=    37 NBE=    37 NFC=     0 NFV=     0
 NROrb=    111 NOA=    37 NOB=    37 NVA=    74 NVB=    74

 **** Warning!!: The largest alpha MO coefficient is  0.96612777D+02

          Differentiating once with respect to electric field.
                with respect to dipole field.
          Electric field/nuclear overlap derivatives assumed to be zero.
 Keep R1 ints in memory in symmetry-blocked form, NReq=24930729.
          There are     3 degrees of freedom in the 1st order CPHF.  IDoFFX=0 NUNeed=     3.
      3 vectors produced by pass  0 Test12= 9.13D-14 3.33D-08 XBig12= 5.00D+01 2.39D+00.
 AX will form     3 AO Fock derivatives at one time.
      3 vectors produced by pass  1 Test12= 9.13D-14 3.33D-08 XBig12= 8.54D+00 8.98D-01.
      3 vectors produced by pass  2 Test12= 9.13D-14 3.33D-08 XBig12= 7.52D-01 3.58D-01.
      3 vectors produced by pass  3 Test12= 9.13D-14 3.33D-08 XBig12= 3.45D-02 3.58D-02.
      3 vectors produced by pass  4 Test12= 9.13D-14 3.33D-08 XBig12= 6.72D-04 7.90D-03.
      3 vectors produced by pass  5 Test12= 9.13D-14 3.33D-08 XBig12= 7.69D-05 3.12D-03.
      3 vectors produced by pass  6 Test12= 9.13D-14 3.33D-08 XBig12= 2.05D-06 5.46D-04.
      3 vectors produced by pass  7 Test12= 9.13D-14 3.33D-08 XBig12= 1.96D-08 3.78D-05.
      3 vectors produced by pass  8 Test12= 9.13D-14 3.33D-08 XBig12= 1.05D-10 2.57D-06.
      3 vectors produced by pass  9 Test12= 9.13D-14 3.33D-08 XBig12= 3.95D-13 2.23D-07.
 InvSVY:  IOpt=1 It=  1 EMax= 8.88D-16
 Solved reduced A of dimension    30 with     3 vectors.
 End of Minotr F.D. properties file   721 does not exist.
 End of Minotr F.D. properties file   722 does not exist.
 End of Minotr F.D. properties file   788 does not exist.
 Symmetrizing basis deriv contribution to polar:
 IMax=3 JMax=2 DiffMx= 0.00D+00
 G2DrvN: will do     6 centers at a time, making    1 passes.
 PxScal for G2LodP:  IOpCl= 0 ISclPx=1 IMOff=     1 NMtTot=     4 NTT=    6216 ScalPx= 4.87D+00
 Calling FoFCou, ICntrl=  3107 FMM=F I1Cent=   0 AccDes= 0.00D+00.
 End of G2Drv F.D. properties file   721 does not exist.
 End of G2Drv F.D. properties file   722 does not exist.
 End of G2Drv F.D. properties file   788 does not exist.
          IDoAtm=11111
          Differentiating once with respect to electric field.
                with respect to dipole field.
          Differentiating once with respect to nuclear coordinates.
 Keep R1 ints in memory in symmetry-blocked form, NReq=24931636.
          There are     9 degrees of freedom in the 1st order CPHF.  IDoFFX=4 NUNeed=     9.
 Will reuse    3 saved solutions.
      6 vectors produced by pass  0 Test12= 3.04D-14 1.11D-08 XBig12= 1.62D-01 2.04D-01.
 AX will form     6 AO Fock derivatives at one time.
      6 vectors produced by pass  1 Test12= 3.04D-14 1.11D-08 XBig12= 1.28D-02 4.62D-02.
      6 vectors produced by pass  2 Test12= 3.04D-14 1.11D-08 XBig12= 8.91D-04 6.93D-03.
      6 vectors produced by pass  3 Test12= 3.04D-14 1.11D-08 XBig12= 1.48D-04 2.83D-03.
      6 vectors produced by pass  4 Test12= 3.04D-14 1.11D-08 XBig12= 2.86D-06 4.50D-04.
      6 vectors produced by pass  5 Test12= 3.04D-14 1.11D-08 XBig12= 7.77D-08 4.57D-05.
      6 vectors produced by pass  6 Test12= 3.04D-14 1.11D-08 XBig12= 8.44D-10 6.14D-06.
      6 vectors produced by pass  7 Test12= 3.04D-14 1.11D-08 XBig12= 5.81D-12 4.83D-07.
      5 vectors produced by pass  8 Test12= 3.04D-14 1.11D-08 XBig12= 2.06D-14 2.20D-08.
 InvSVY:  IOpt=1 It=  1 EMax= 6.66D-16
 Solved reduced A of dimension    53 with     6 vectors.
 Isotropic polarizability for W=    0.000000       61.19 Bohr**3.
 End of Minotr F.D. properties file   721 does not exist.
 End of Minotr F.D. properties file   722 does not exist.
 End of Minotr F.D. properties file   788 does not exist.

 **********************************************************************

            Population analysis using the SCF Density.

 **********************************************************************

 Orbital symmetries:
       Occupied  (T2) (T2) (T2) (A1) (A1) (T2) (T2) (T2) (A1) (A1)
                 (T2) (T2) (T2) (T1) (T1) (T1) (E) (E) (T2) (T2)
                 (T2) (A1) (T2) (T2) (T2) (A1) (T2) (T2) (T2) (E)
                 (E) (T2) (T2) (T2) (T1) (T1) (T1)
       Virtual   (A1) (T2) (T2) (T2) (A1) (T2) (T2) (T2) (E) (E)
                 (T2) (T2) (T2) (A1) (T1) (T1) (T1) (T2) (T2) (T2)
                 (T2) (T2) (T2) (A1) (T2) (T2) (T2) (T2) (T2) (T2)
                 (A1) (E) (E) (A1) (T2) (T2) (T2) (T1) (T1) (T1)
                 (T2) (T2) (T2) (E) (E) (T1) (T1) (T1) (E) (E)
                 (T2) (T2) (T2) (T1) (T1) (T1) (A1) (T2) (T2) (T2)
                 (T2) (T2) (T2) (A1) (E) (E) (T2) (T2) (T2) (A1)
                 (T2) (T2) (T2) (A1)
 The electronic state is 1-A1.
 Alpha  occ. eigenvalues -- -101.59280-101.59280-101.59280-101.59280 -10.44023
 Alpha  occ. eigenvalues --   -9.50874  -9.50874  -9.50874  -9.50872  -7.27391
 Alpha  occ. eigenvalues --   -7.27387  -7.27387  -7.27387  -7.26220  -7.26220
 Alpha  occ. eigenvalues --   -7.26220  -7.26220  -7.26220  -7.26219  -7.26219
 Alpha  occ. eigenvalues --   -7.26219  -0.98805  -0.86515  -0.86515  -0.86515
 Alpha  occ. eigenvalues --   -0.64266  -0.51116  -0.51116  -0.51116  -0.38401
 Alpha  occ. eigenvalues --   -0.38401  -0.36205  -0.36205  -0.36205  -0.32920
 Alpha  occ. eigenvalues --   -0.32920  -0.32920
 Alpha virt. eigenvalues --   -0.08538  -0.03086  -0.03086  -0.03086   0.01140
 Alpha virt. eigenvalues --    0.04402   0.04402   0.04402   0.08807   0.08807
 Alpha virt. eigenvalues --    0.09626   0.09626   0.09626   0.11124   0.12606
 Alpha virt. eigenvalues --    0.12606   0.12606   0.13312   0.13312   0.13312
 Alpha virt. eigenvalues --    0.15742   0.15742   0.15742   0.26700   0.50554
 Alpha virt. eigenvalues --    0.50554   0.50554   0.54682   0.54682   0.54682
 Alpha virt. eigenvalues --    0.55282   0.55617   0.55617   0.57577   0.58953
 Alpha virt. eigenvalues --    0.58953   0.58953   0.63203   0.63203   0.63203
 Alpha virt. eigenvalues --    0.71068   0.71068   0.71068   0.74259   0.74259
 Alpha virt. eigenvalues --    0.82538   0.82538   0.82538   0.84178   0.84178
 Alpha virt. eigenvalues --    0.84949   0.84949   0.84949   0.88216   0.88216
 Alpha virt. eigenvalues --    0.88216   1.00542   1.06550   1.06550   1.06550
 Alpha virt. eigenvalues --    1.22360   1.22360   1.22360   1.53027   1.71016
 Alpha virt. eigenvalues --    1.71016   2.07426   2.07426   2.07426   3.91700
 Alpha virt. eigenvalues --    4.30779   4.30779   4.30779   4.35239
          Condensed to atoms (all electrons):
               1          2          3          4          5
     1  C    5.553531   0.198889   0.198889   0.198889   0.198889
     2  Cl   0.198889  16.977766  -0.087976  -0.087976  -0.087976
     3  Cl   0.198889  -0.087976  16.977766  -0.087976  -0.087976
     4  Cl   0.198889  -0.087976  -0.087976  16.977766  -0.087976
     5  Cl   0.198889  -0.087976  -0.087976  -0.087976  16.977766
 Mulliken charges:
               1
     1  C   -0.349088
     2  Cl   0.087272
     3  Cl   0.087272
     4  Cl   0.087272
     5  Cl   0.087272
 Sum of Mulliken charges =   0.00000
 Mulliken charges with hydrogens summed into heavy atoms:
               1
     1  C   -0.349088
     2  Cl   0.087272
     3  Cl   0.087272
     4  Cl   0.087272
     5  Cl   0.087272
 APT charges:
               1
     1  C    1.435236
     2  Cl  -0.358809
     3  Cl  -0.358809
     4  Cl  -0.358809
     5  Cl  -0.358809
 Sum of APT charges =   0.00000
 APT charges with hydrogens summed into heavy atoms:
               1
     1  C    1.435236
     2  Cl  -0.358809
     3  Cl  -0.358809
     4  Cl  -0.358809
     5  Cl  -0.358809
 Electronic spatial extent (au):  <R**2>=            904.4993
 Charge=              0.0000 electrons
 Dipole moment (field-independent basis, Debye):
    X=              0.0000    Y=              0.0000    Z=              0.0000  Tot=              0.0000
 Quadrupole moment (field-independent basis, Debye-Ang):
   XX=            -55.5866   YY=            -55.5866   ZZ=            -55.5866
   XY=              0.0000   XZ=              0.0000   YZ=              0.0000
 Traceless Quadrupole moment (field-independent basis, Debye-Ang):
   XX=              0.0000   YY=              0.0000   ZZ=              0.0000
   XY=              0.0000   XZ=              0.0000   YZ=              0.0000
 Octapole moment (field-independent basis, Debye-Ang**2):
  XXX=              0.0000  YYY=              0.0000  ZZZ=              0.0000  XYY=              0.0000
  XXY=              0.0000  XXZ=              0.0000  XZZ=              0.0000  YZZ=              0.0000
  YYZ=              0.0000  XYZ=              5.5658
 Hexadecapole moment (field-independent basis, Debye-Ang**3):
 XXXX=           -380.7661 YYYY=           -380.7661 ZZZZ=           -380.7661 XXXY=              0.0000
 XXXZ=              0.0000 YYYX=              0.0000 YYYZ=              0.0000 ZZZX=              0.0000
 ZZZY=              0.0000 XXYY=           -117.8551 XXZZ=           -117.8551 YYZZ=           -117.8551
 XXYZ=              0.0000 YYXZ=              0.0000 ZZXY=              0.0000
 N-N= 4.338476555459D+02 E-N=-5.329205899885D+03  KE= 1.872832735268D+03
 Symmetry A    KE= 4.909972036313D+02
 Symmetry B1   KE= 4.606118438790D+02
 Symmetry B2   KE= 4.606118438790D+02
 Symmetry B3   KE= 4.606118438790D+02
  Exact polarizability:  61.194   0.000  61.194   0.000   0.000  61.194
 Approx polarizability:  89.211   0.000  89.211   0.000   0.000  89.211
 Calling FoFJK, ICntrl=    100127 FMM=F ISym2X=1 I1Cent= 0 IOpClX= 0 NMat=1 NMatS=1 NMatT=0.
 Full mass-weighted force constant matrix:
 Low frequencies ---  -12.1180  -12.1180  -12.1180   -0.0048   -0.0047   -0.0017
 Low frequencies ---  216.2523  216.2523  315.1430
 Dipole derivative wrt mode   1:  1.50265D-09  1.56626D-09 -1.01545D-08
 Polarizability derivatives wrt mode          1
                 1             2             3 
      1  -0.225118D+00  0.000000D+00  0.000000D+00
      2   0.000000D+00 -0.229015D+00  0.000000D+00
      3   0.000000D+00  0.000000D+00  0.454133D+00
 Vibrational polarizability contributions from mode   1       0.0000000       0.0000000       0.0000000
 Vibrational hyperpolarizability contributions from mode   1       0.0000000       0.0000000      -0.0000003
 IFr=  0 A012= 0.00D+00 0.28D+01 0.46D+00 Act= 0.32D+01 DepolP= 0.75D+00 DepolU= 0.86D+00
 Dipole derivative wrt mode   2: -9.55443D-11  4.08103D-11 -8.45349D-12
 Polarizability derivatives wrt mode          2
                 1             2             3 
      1   0.394416D+00  0.000000D+00  0.000000D+00
      2   0.000000D+00 -0.392166D+00  0.000000D+00
      3   0.000000D+00  0.000000D+00 -0.224991D-02
 Vibrational polarizability contributions from mode   2       0.0000000       0.0000000       0.0000000
 Vibrational hyperpolarizability contributions from mode   2       0.0000000       0.0000000       0.0000000
 IFr=  0 A012=-0.23D-16 0.28D+01 0.46D+00 Act= 0.32D+01 DepolP= 0.75D+00 DepolU= 0.86D+00
 Dipole derivative wrt mode   3:  3.98715D-01 -3.28184D-01  1.23676D-02
 Polarizability derivatives wrt mode          3
                 1             2             3 
      1   0.000000D+00 -0.122326D-01  0.324600D+00
      2  -0.122326D-01  0.000000D+00 -0.394361D+00
      3   0.324600D+00 -0.394361D+00  0.000000D+00
 Vibrational polarizability contributions from mode   3       0.0430767       0.0291845       0.0000414
 Vibrational hyperpolarizability contributions from mode   3       0.0000000       0.0000000       0.0000000
 IFr=  0 A012= 0.21D-21 0.47D+01 0.78D+00 Act= 0.55D+01 DepolP= 0.75D+00 DepolU= 0.86D+00
 Dipole derivative wrt mode   4:  3.12557D-01  3.85164D-01  1.44180D-01
 Polarizability derivatives wrt mode          4
                 1             2             3 
      1   0.000000D+00 -0.142606D+00 -0.380958D+00
      2  -0.142606D+00  0.000000D+00 -0.309145D+00
      3  -0.380958D+00 -0.309145D+00  0.000000D+00
 Vibrational polarizability contributions from mode   4       0.0264714       0.0401984       0.0056329
 Vibrational hyperpolarizability contributions from mode   4       0.0000000       0.0000000       0.0000000
 IFr=  0 A012= 0.41D-19 0.47D+01 0.78D+00 Act= 0.55D+01 DepolP= 0.75D+00 DepolU= 0.86D+00
 Dipole derivative wrt mode   5:  1.00824D-01  1.03805D-01 -4.95873D-01
 Polarizability derivatives wrt mode          5
                 1             2             3 
      1   0.000000D+00  0.490459D+00 -0.102672D+00
      2   0.490459D+00  0.000000D+00 -0.997229D-01
      3  -0.102672D+00 -0.997229D-01  0.000000D+00
 Vibrational polarizability contributions from mode   5       0.0027545       0.0029198       0.0666283
 Vibrational hyperpolarizability contributions from mode   5       0.0000000       0.0000000       0.0000000
 IFr=  0 A012= 0.19D-18 0.47D+01 0.78D+00 Act= 0.55D+01 DepolP= 0.75D+00 DepolU= 0.86D+00
 Dipole derivative wrt mode   6:  1.46251D-09  1.45962D-09 -2.50925D-09
 Polarizability derivatives wrt mode          6
                 1             2             3 
      1   0.687480D+00  0.000000D+00  0.000000D+00
      2   0.000000D+00  0.687480D+00  0.000000D+00
      3   0.000000D+00  0.000000D+00  0.687480D+00
 Vibrational polarizability contributions from mode   6       0.0000000       0.0000000       0.0000000
 Vibrational hyperpolarizability contributions from mode   6       0.0000000       0.0000000       0.0000000
 IFr=  0 A012= 0.64D+01 0.13D+02 0.21D+01 Act= 0.21D+02 DepolP=-0.21D-16 DepolU=-0.42D-16
 Dipole derivative wrt mode   7: -9.78959D+00  9.83735D+00  4.08056D-03
 Polarizability derivatives wrt mode          7
                 1             2             3 
      1   0.000000D+00 -0.139531D-03 -0.336379D+00
      2  -0.139531D-03  0.000000D+00  0.334746D+00
      3  -0.336379D+00  0.334746D+00  0.000000D+00
 Vibrational polarizability contributions from mode   7       4.6678354       4.7134957       0.0000008
 Vibrational hyperpolarizability contributions from mode   7       0.0000000       0.0000000       0.0000000
 IFr=  0 A012= 0.31D-23 0.41D+01 0.68D+00 Act= 0.47D+01 DepolP= 0.75D+00 DepolU= 0.86D+00
 Dipole derivative wrt mode   8:  9.65557D+00  9.60759D+00  2.65967D+00
 Polarizability derivatives wrt mode          8
                 1             2             3 
      1   0.000000D+00 -0.909450D-01 -0.328522D+00
      2  -0.909450D-01  0.000000D+00 -0.330163D+00
      3  -0.328522D+00 -0.330163D+00  0.000000D+00
 Vibrational polarizability contributions from mode   8       4.5409052       4.4958842       0.3445425
 Vibrational hyperpolarizability contributions from mode   8       0.0000000       0.0000000       0.0000000
 IFr=  0 A012= 0.62D-19 0.41D+01 0.68D+00 Act= 0.47D+01 DepolP= 0.75D+00 DepolU= 0.86D+00
 Dipole derivative wrt mode   9: -1.88242D+00 -1.87893D+00  1.36212D+01
 Polarizability derivatives wrt mode          9
                 1             2             3 
      1   0.000000D+00 -0.465763D+00  0.642482D-01
      2  -0.465763D+00  0.000000D+00  0.643676D-01
      3   0.642482D-01  0.643676D-01  0.000000D+00
 Vibrational polarizability contributions from mode   9       0.1725913       0.1719520       9.0367886
 Vibrational hyperpolarizability contributions from mode   9       0.0000000       0.0000000       0.0000001
 IFr=  0 A012= 0.14D-16 0.41D+01 0.68D+00 Act= 0.47D+01 DepolP= 0.75D+00 DepolU= 0.86D+00
 Diagonal vibrational polarizability:
        9.4536346       9.4536346       9.4536346
 Diagonal vibrational hyperpolarizability:
        0.0000000       0.0000000      -0.0000002
 Harmonic frequencies (cm**-1), IR intensities (KM/Mole), Raman scattering
 activities (A**4/AMU), depolarization ratios for plane and unpolarized
 incident light, reduced masses (AMU), force constants (mDyne/A),
 and normal coordinates:
                      1                      2                      3
                      E                      E                     T2
 Frequencies --    216.2523               216.2523               315.1430
 Red. masses --     34.9689                34.9689                32.5697
 Frc consts  --      0.9635                 0.9635                 1.9058
 IR Inten    --      0.0000                 0.0000                 0.2668
 Raman Activ --      3.2483                 3.2483                 5.4818
 Depolar (P) --      0.7500                 0.7500                 0.7500
 Depolar (U) --      0.8571                 0.8571                 0.8571
  Atom  AN      X      Y      Z        X      Y      Z        X      Y      Z
     1   6     0.00   0.00   0.00     0.00   0.00   0.00    -0.25   0.21  -0.01
     2  17    -0.20  -0.21   0.41     0.35  -0.35   0.00     0.23  -0.28  -0.04
     3  17     0.20   0.21   0.41    -0.35   0.35   0.00     0.24  -0.27   0.05
     4  17     0.20  -0.21  -0.41    -0.35  -0.35   0.00    -0.20   0.25  -0.47
     5  17    -0.20   0.21  -0.41     0.35   0.35   0.00    -0.18   0.23   0.47
                      4                      5                      6
                     T2                     T2                     A1
 Frequencies --    315.1430               315.1430               450.2798
 Red. masses --     32.5697                32.5697                34.9689
 Frc consts  --      1.9058                 1.9058                 4.1773
 IR Inten    --      0.2668                 0.2668                 0.0000
 Raman Activ --      5.4818                 5.4818                21.2683
 Depolar (P) --      0.7500                 0.7500                 0.0000
 Depolar (U) --      0.8571                 0.8571                 0.0000
  Atom  AN      X      Y      Z        X      Y      Z        X      Y      Z
     1   6    -0.20  -0.24  -0.09    -0.06  -0.06   0.31     0.00   0.00   0.00
     2  17    -0.33  -0.27  -0.44     0.26   0.26  -0.16     0.29   0.29   0.29
     3  17    -0.14  -0.09   0.46    -0.38  -0.38   0.11    -0.29  -0.29   0.29
     4  17     0.17   0.32   0.05     0.39  -0.25  -0.02    -0.29   0.29  -0.29
     5  17     0.36   0.13  -0.04    -0.25   0.39  -0.03     0.29  -0.29  -0.29
                      7                      8                      9
                     T2                     T2                     T2
 Frequencies --    743.3157               743.3157               743.3157
 Red. masses --     13.0036                13.0036                13.0036
 Frc consts  --      4.2331                 4.2331                 4.2331
 IR Inten    --    192.6096               192.6096               192.6096
 Raman Activ --      4.7293                 4.7293                 4.7293
 Depolar (P) --      0.7500                 0.7500                 0.7500
 Depolar (U) --      0.8571                 0.8571                 0.8571
  Atom  AN      X      Y      Z        X      Y      Z        X      Y      Z
     1   6    -0.69   0.69   0.00     0.68   0.68   0.19    -0.13  -0.13   0.96
     2  17     0.03  -0.03   0.00    -0.10  -0.10  -0.08    -0.03  -0.03  -0.07
     3  17     0.03  -0.03   0.00    -0.08  -0.08   0.05     0.06   0.06  -0.09
     4  17     0.09  -0.09   0.06    -0.04  -0.02  -0.02    -0.04   0.05  -0.08
     5  17     0.09  -0.09  -0.06    -0.02  -0.04  -0.02     0.05  -0.04  -0.08

 -------------------
 - Thermochemistry -
 -------------------
 Temperature   298.150 Kelvin.  Pressure   1.00000 Atm.
 Atom     1 has atomic number  6 and mass  12.00000
 Atom     2 has atomic number 17 and mass  34.96885
 Atom     3 has atomic number 17 and mass  34.96885
 Atom     4 has atomic number 17 and mass  34.96885
 Atom     5 has atomic number 17 and mass  34.96885
 Molecular mass:   151.87541 amu.
 Principal axes and moments of inertia in atomic units:
                           1         2         3
     Eigenvalues --  1070.345251070.345251070.34525
           X            1.00000   0.00000   0.00000
           Y            0.00000   1.00000   0.00000
           Z            0.00000   0.00000   1.00000
 This molecule is a spherical top.
 Rotational symmetry number 12.
 Warning -- assumption of classical behavior for rotation
           may cause significant error
 Rotational temperatures (Kelvin)      0.08092     0.08092     0.08092
 Rotational constants (GHZ):           1.68613     1.68613     1.68613
 Zero-point vibrational energy      24273.2 (Joules/Mol)
                                    5.80143 (Kcal/Mol)
 Warning -- explicit consideration of   6 degrees of freedom as
           vibrations may cause significant error
 Vibrational temperatures:    311.14   311.14   453.42   453.42   453.42
          (Kelvin)            647.85  1069.47  1069.47  1069.47
 
 Zero-point correction=                           0.009245 (Hartree/Particle)
 Thermal correction to Energy=                    0.014907
 Thermal correction to Enthalpy=                  0.015851
 Thermal correction to Gibbs Free Energy=        -0.019394
 Sum of electronic and zero-point Energies=          -1878.850631
 Sum of electronic and thermal Energies=             -1878.844969
 Sum of electronic and thermal Enthalpies=           -1878.844025
 Sum of electronic and thermal Free Energies=        -1878.879270
 
                     E (Thermal)             CV                S
                      KCal/Mol        Cal/Mol-Kelvin    Cal/Mol-Kelvin
 Total                    9.354             18.135             74.179
 Electronic               0.000              0.000              0.000
 Translational            0.889              2.981             40.964
 Rotational               0.889              2.981             23.658
 Vibrational              7.577             12.173              9.557
 Vibration     1          0.645              1.816              1.990
 Vibration     2          0.645              1.816              1.990
 Vibration     3          0.703              1.645              1.335
 Vibration     4          0.703              1.645              1.335
 Vibration     5          0.703              1.645              1.335
 Vibration     6          0.809              1.360              0.795
                       Q            Log10(Q)             Ln(Q)
 Total Bot       0.832946D+09          8.920617         20.540480
 Total V=0       0.148969D+14         13.173096         30.332175
 Vib (Bot)       0.342753D-03         -3.465018         -7.978499
 Vib (Bot)    1  0.916115D+00         -0.038050         -0.087614
 Vib (Bot)    2  0.916115D+00         -0.038050         -0.087614
 Vib (Bot)    3  0.598220D+00         -0.223139         -0.513797
 Vib (Bot)    4  0.598220D+00         -0.223139         -0.513797
 Vib (Bot)    5  0.598220D+00         -0.223139         -0.513797
 Vib (Bot)    6  0.380759D+00         -0.419350         -0.965589
 Vib (V=0)       0.613001D+01          0.787461          1.813196
 Vib (V=0)    1  0.154368D+01          0.188557          0.434169
 Vib (V=0)    2  0.154368D+01          0.188557          0.434169
 Vib (V=0)    3  0.127966D+01          0.107094          0.246593
 Vib (V=0)    4  0.127966D+01          0.107094          0.246593
 Vib (V=0)    5  0.127966D+01          0.107094          0.246593
 Vib (V=0)    6  0.112847D+01          0.052491          0.120865
 Electronic      0.100000D+01          0.000000          0.000000
 Translational   0.735673D+08          7.866685         18.113712
 Rotational      0.330332D+05          4.518950         10.405267
 ***** Axes restored to original set *****
 -------------------------------------------------------------------
 Center     Atomic                   Forces (Hartrees/Bohr)
 Number     Number              X              Y              Z
 -------------------------------------------------------------------
      1        6           0.000000000    0.000000000    0.000000000
      2       17           0.000001151    0.000001151    0.000001151
      3       17          -0.000001151   -0.000001151    0.000001151
      4       17          -0.000001151    0.000001151   -0.000001151
      5       17           0.000001151   -0.000001151   -0.000001151
 -------------------------------------------------------------------
 Cartesian Forces:  Max     0.000001151 RMS     0.000001029

 GradGradGradGradGradGradGradGradGradGradGradGradGradGradGradGradGradGrad
 Berny optimization.
 Search for a local minimum.
 Step number   1 out of a maximum of    2
 All quantities printed in internal units (Hartrees-Bohrs-Radians)
 Second derivative matrix not updated -- analytic derivatives used.
 The second derivative matrix:
                          X1        Y1        Z1        X2        Y2
           X1           0.22317
           Y1           0.00000   0.22317
           Z1           0.00000   0.00000   0.22317
           X2          -0.05579  -0.02385  -0.02385   0.08570
           Y2          -0.02385  -0.05579  -0.02385   0.04871   0.08570
           Z2          -0.02385  -0.02385  -0.05579   0.04871   0.04871
           X3          -0.05579  -0.02385   0.02385  -0.01873  -0.02486
           Y3          -0.02385  -0.05579   0.02385  -0.02486  -0.01873
           Z3           0.02385   0.02385  -0.05579  -0.00238  -0.00238
           X4          -0.05579   0.02385  -0.02385  -0.01873   0.00238
           Y4           0.02385  -0.05579   0.02385  -0.00238   0.00755
           Z4          -0.02385   0.02385  -0.05579  -0.02486   0.00238
           X5          -0.05579   0.02385   0.02385   0.00755  -0.00238
           Y5           0.02385  -0.05579  -0.02385   0.00238  -0.01873
           Z5           0.02385  -0.02385  -0.05579   0.00238  -0.02486
                          Z2        X3        Y3        Z3        X4
           Z2           0.08570
           X3           0.00238   0.08570
           Y3           0.00238   0.04871   0.08570
           Z3           0.00755  -0.04871  -0.04871   0.08570
           X4          -0.02486   0.00755  -0.00238   0.00238   0.08570
           Y4          -0.00238   0.00238  -0.01873   0.02486  -0.04871
           Z4          -0.01873  -0.00238   0.02486  -0.01873   0.04871
           X5          -0.00238  -0.01873   0.00238   0.02486  -0.01873
           Y5          -0.02486  -0.00238   0.00755   0.00238   0.02486
           Z5          -0.01873   0.02486  -0.00238  -0.01873  -0.00238
                          Y4        Z4        X5        Y5        Z5
           Y4           0.08570
           Z4          -0.04871   0.08570
           X5           0.02486   0.00238   0.08570
           Y5          -0.01873  -0.00238  -0.04871   0.08570
           Z5           0.00238   0.00755  -0.04871   0.04871   0.08570
 ITU=  0
     Eigenvalues ---    0.06189   0.06189   0.11986   0.11986   0.11986
     Eigenvalues ---    0.26831   0.30713   0.30713   0.30713
 Angle between quadratic step and forces=   0.00 degrees.
 ClnCor:  largest displacement from symmetrization is 6.15D-12 for atom     5.
 Linear search not attempted -- first point.
 ClnCor:  largest displacement from symmetrization is 3.85D-16 for atom     2.
 B after Tr=     0.000000    0.000000    0.000000
         Rot=    1.000000    0.000000    0.000000    0.000000 Ang=   0.00 deg.
 Variable       Old X    -DE/DX   Delta X   Delta X   Delta X     New X
                                 (Linear)    (Quad)   (Total)
    X1        0.00000   0.00000   0.00000   0.00000   0.00000   0.00000
    Y1        0.00000   0.00000   0.00000   0.00000   0.00000   0.00000
    Z1        0.00000   0.00000   0.00000   0.00000   0.00000   0.00000
    X2        1.95603   0.00000   0.00000   0.00000   0.00000   1.95604
    Y2        1.95603   0.00000   0.00000   0.00000   0.00000   1.95604
    Z2        1.95603   0.00000   0.00000   0.00000   0.00000   1.95604
    X3       -1.95603   0.00000   0.00000   0.00000   0.00000  -1.95604
    Y3       -1.95603   0.00000   0.00000   0.00000   0.00000  -1.95604
    Z3        1.95603   0.00000   0.00000   0.00000   0.00000   1.95604
    X4       -1.95603   0.00000   0.00000   0.00000   0.00000  -1.95604
    Y4        1.95603   0.00000   0.00000   0.00000   0.00000   1.95604
    Z4       -1.95603   0.00000   0.00000   0.00000   0.00000  -1.95604
    X5        1.95603   0.00000   0.00000   0.00000   0.00000   1.95604
    Y5       -1.95603   0.00000   0.00000   0.00000   0.00000  -1.95604
    Z5       -1.95603   0.00000   0.00000   0.00000   0.00000  -1.95604
         Item               Value     Threshold  Converged?
 Maximum Force            0.000001     0.000450     YES
 RMS     Force            0.000001     0.000300     YES
 Maximum Displacement     0.000004     0.001800     YES
 RMS     Displacement     0.000004     0.001200     YES
 Predicted change in Energy=-2.962493D-11
 Optimization completed.
    -- Stationary point found.
 GradGradGradGradGradGradGradGradGradGradGradGradGradGradGradGradGradGrad

 Dipole is zero, so no output in dipole orientation.

 ----------------------------------------------------------------------

 Electric dipole moment (input orientation):
 (Debye = 10**-18 statcoulomb cm , SI units = C m)
                  (au)            (Debye)         (10**-30 SI)
   Tot        0.000000D+00      0.000000D+00      0.000000D+00
   x          0.000000D+00      0.000000D+00      0.000000D+00
   y          0.000000D+00      0.000000D+00      0.000000D+00
   z          0.000000D+00      0.000000D+00      0.000000D+00

 Dipole polarizability, Alpha (input orientation).
 (esu units = cm**3 , SI units = C**2 m**2 J**-1)
 Alpha(0;0):
               (au)            (10**-24 esu)      (10**-40 SI)
   iso        0.611940D+02      0.906801D+01      0.100895D+02
   aniso      0.000000D+00      0.000000D+00      0.000000D+00
   xx         0.611940D+02      0.906801D+01      0.100895D+02
   yx         0.000000D+00      0.000000D+00      0.000000D+00
   yy         0.611940D+02      0.906801D+01      0.100895D+02
   zx         0.000000D+00      0.000000D+00      0.000000D+00
   zy         0.000000D+00      0.000000D+00      0.000000D+00
   zz         0.611940D+02      0.906801D+01      0.100895D+02

 First dipole hyperpolarizability, Beta (input orientation).
 ||, _|_  parallel and perpendicular components, (z) with respect to z axis,
 vector components x,y,z.  Values do not include the 1/n! factor of 1/2.
 (esu units = statvolt**-1 cm**4 , SI units = C**3 m**3 J**-2)
 Beta(0;0,0):
               (au)            (10**-30 esu)      (10**-50 SI)
   || (z)     0.000000D+00      0.000000D+00      0.000000D+00
   _|_(z)     0.000000D+00      0.000000D+00      0.000000D+00
   x          0.000000D+00      0.000000D+00      0.000000D+00
   y          0.000000D+00      0.000000D+00      0.000000D+00
   z          0.000000D+00      0.000000D+00      0.000000D+00
   ||         0.000000D+00      0.000000D+00      0.000000D+00
   xxx        0.000000D+00      0.000000D+00      0.000000D+00
   xxy        0.000000D+00      0.000000D+00      0.000000D+00
   yxy        0.000000D+00      0.000000D+00      0.000000D+00
   yyy        0.000000D+00      0.000000D+00      0.000000D+00
   xxz        0.000000D+00      0.000000D+00      0.000000D+00
   yxz       -0.217288D+02     -0.187720D+00     -0.696703D-01
   yyz        0.000000D+00      0.000000D+00      0.000000D+00
   zxz        0.000000D+00      0.000000D+00      0.000000D+00
   zyz        0.000000D+00      0.000000D+00      0.000000D+00
   zzz        0.000000D+00      0.000000D+00      0.000000D+00

 ----------------------------------------------------------------------
 1|1|UNPC-IPC633|Freq|RB3LYP|6-31+G(d)|C1Cl4|NO83WEC|10-Sep-2020|0||# f
 req(raman, printderivatives) b3lyp/6-31+G* geom=connectivity||Ramanten
 sor||0,1|C,0.,0.,0.|Cl,1.03508828,1.03508828,1.03508828|Cl,-1.03508828
 ,-1.03508828,1.03508828|Cl,-1.03508828,1.03508828,-1.03508828|Cl,1.035
 08828,-1.03508828,-1.03508828||Version=EM64W-G16RevB.01|State=1-A1|HF=
 -1878.8598758|RMSD=1.167e-009|RMSF=1.029e-006|ZeroPoint=0.0092452|Ther
 mal=0.0149066|Dipole=0.,0.,0.|DipoleDeriv=1.4352363,0.,0.,0.,1.4352363
 ,0.,0.,0.,1.4352363,-0.3588091,-0.2238246,-0.2238246,-0.2238246,-0.358
 8091,-0.2238246,-0.2238246,-0.2238246,-0.3588091,-0.3588091,-0.2238246
 ,0.2238246,-0.2238246,-0.3588091,0.2238246,0.2238246,0.2238246,-0.3588
 091,-0.3588091,0.2238246,-0.2238246,0.2238246,-0.3588091,0.2238246,-0.
 2238246,0.2238246,-0.3588091,-0.3588091,0.2238246,0.2238246,0.2238246,
 -0.3588091,-0.2238246,0.2238246,-0.2238246,-0.3588091|Polar=61.1939839
 ,0.,61.1939839,0.,0.,61.1939839|PolarDeriv=0.,0.,0.,0.,-4.274996,0.,0.
 ,0.,0.,-4.274996,0.,0.,0.,-4.274996,0.,0.,0.,0.,8.1060819,4.4582735,2.
 2333214,4.4582735,1.068749,2.2333214,2.2333214,4.4582735,8.1060819,1.0
 68749,4.4582735,2.2333214,2.2333213,1.068749,2.2333213,4.4582735,4.458
 2735,8.1060819,-8.1060819,-4.4582735,-2.2333214,4.4582735,1.068749,-2.
 2333214,-2.2333214,-4.4582735,-8.1060819,1.068749,4.4582735,-2.2333214
 ,2.2333213,1.068749,2.2333213,-4.4582735,-4.4582735,8.1060819,-8.10608
 19,4.4582735,-2.2333214,-4.4582735,1.068749,-2.2333214,2.2333214,-4.45
 82735,8.1060819,1.068749,-4.4582735,2.2333214,-2.2333213,1.068749,-2.2
 333213,-4.4582735,4.4582735,-8.1060819,8.1060819,-4.4582735,2.2333214,
 -4.4582735,1.068749,2.2333214,-2.2333214,4.4582735,-8.1060819,1.068749
 ,-4.4582735,-2.2333214,-2.2333213,1.068749,-2.2333213,4.4582735,-4.458
 2735,-8.1060819|HyperPolar=0.,0.,0.,0.,0.,-21.7287782,0.,0.,0.,0.|Quad
 rupole=0.,0.,0.,0.,0.,0.|PG=TD [O(C1),4C3(Cl1)]|NImag=0||0.22316529,0.
 ,0.22316529,0.,0.,0.22316529,-0.05579132,-0.02385314,-0.02385314,0.085
 69511,-0.02385314,-0.05579132,-0.02385314,0.04871402,0.08569511,-0.023
 85314,-0.02385314,-0.05579132,0.04871402,0.04871402,0.08569511,-0.0557
 9132,-0.02385314,0.02385314,-0.01872576,-0.02486088,0.00238340,0.08569
 511,-0.02385314,-0.05579132,0.02385314,-0.02486088,-0.01872576,0.00238
 340,0.04871402,0.08569511,0.02385314,0.02385314,-0.05579132,-0.0023834
 0,-0.00238340,0.00754773,-0.04871402,-0.04871402,0.08569511,-0.0557913
 2,0.02385314,-0.02385314,-0.01872576,0.00238340,-0.02486088,0.00754773
 ,-0.00238340,0.00238340,0.08569511,0.02385314,-0.05579132,0.02385314,-
 0.00238340,0.00754773,-0.00238340,0.00238340,-0.01872576,0.02486088,-0
 .04871402,0.08569511,-0.02385314,0.02385314,-0.05579132,-0.02486088,0.
 00238340,-0.01872576,-0.00238340,0.02486088,-0.01872576,0.04871402,-0.
 04871402,0.08569511,-0.05579132,0.02385314,0.02385314,0.00754773,-0.00
 238340,-0.00238340,-0.01872576,0.00238340,0.02486088,-0.01872576,0.024
 86088,0.00238340,0.08569511,0.02385314,-0.05579132,-0.02385314,0.00238
 340,-0.01872576,-0.02486088,-0.00238340,0.00754773,0.00238340,0.024860
 88,-0.01872576,-0.00238340,-0.04871402,0.08569511,0.02385314,-0.023853
 14,-0.05579132,0.00238340,-0.02486088,-0.01872576,0.02486088,-0.002383
 40,-0.01872576,-0.00238340,0.00238340,0.00754773,-0.04871402,0.0487140
 2,0.08569511||0.,0.,0.,-0.00000115,-0.00000115,-0.00000115,0.00000115,
 0.00000115,-0.00000115,0.00000115,-0.00000115,0.00000115,-0.00000115,0
 .00000115,0.00000115|||@


 TO DETECT ERRORS, THE PROGRAMMER MUST HAVE A CONNIVING MIND,
 ONE THAT DELIGHTS IN UNCOVERING FLAWS WHERE BEAUTY AND
 PERFECTION WERE ONCE THOUGHT TO LIE.

             -- THE PSYCHOLOGY OF COMPUTER PROGRAMMING
                GERALD M. WEINBERG
 Job cpu time:       0 days  0 hours  0 minutes 24.0 seconds.
 Elapsed time:       0 days  0 hours  0 minutes 23.1 seconds.
 File lengths (MBytes):  RWF=     12 Int=      0 D2E=      0 Chk=      2 Scr=      1
 Normal termination of Gaussian 16 at Thu Sep 10 12:12:22 2020.
