 Entering Link 1 = C:\G16W\l1.exe PID=     15036.
  
 Copyright (c) 1988-2017, Gaussian, Inc.  All Rights Reserved.
  
 This is part of the Gaussian(R) 16 program.  It is based on
 the Gaussian(R) 09 system (copyright 2009, Gaussian, Inc.),
 the Gaussian(R) 03 system (copyright 2003, Gaussian, Inc.),
 the Gaussian(R) 98 system (copyright 1998, Gaussian, Inc.),
 the Gaussian(R) 94 system (copyright 1995, Gaussian, Inc.),
 the Gaussian 92(TM) system (copyright 1992, Gaussian, Inc.),
 the Gaussian 90(TM) system (copyright 1990, Gaussian, Inc.),
 the Gaussian 88(TM) system (copyright 1988, Gaussian, Inc.),
 the Gaussian 86(TM) system (copyright 1986, Carnegie Mellon
 University), and the Gaussian 82(TM) system (copyright 1983,
 Carnegie Mellon University). Gaussian is a federally registered
 trademark of Gaussian, Inc.
  
 This software contains proprietary and confidential information,
 including trade secrets, belonging to Gaussian, Inc.
  
 This software is provided under written license and may be
 used, copied, transmitted, or stored only in accord with that
 written license.
  
 The following legend is applicable only to US Government
 contracts under FAR:
  
                    RESTRICTED RIGHTS LEGEND
  
 Use, reproduction and disclosure by the US Government is
 subject to restrictions as set forth in subparagraphs (a)
 and (c) of the Commercial Computer Software - Restricted
 Rights clause in FAR 52.227-19.
  
 Gaussian, Inc.
 340 Quinnipiac St., Bldg. 40, Wallingford CT 06492
  
  
 ---------------------------------------------------------------
 Warning -- This program may not be used in any manner that
 competes with the business of Gaussian, Inc. or will provide
 assistance to any competitor of Gaussian, Inc.  The licensee
 of this program is prohibited from giving any competitor of
 Gaussian, Inc. access to this program.  By using this program,
 the user acknowledges that Gaussian, Inc. is engaged in the
 business of creating and licensing software in the field of
 computational chemistry and represents and warrants to the
 licensee that it is not a competitor of Gaussian, Inc. and that
 it will not use this program in any manner prohibited above.
 ---------------------------------------------------------------
  

 Cite this work as:
 Gaussian 16, Revision B.01,
 M. J. Frisch, G. W. Trucks, H. B. Schlegel, G. E. Scuseria, 
 M. A. Robb, J. R. Cheeseman, G. Scalmani, V. Barone, 
 G. A. Petersson, H. Nakatsuji, X. Li, M. Caricato, A. V. Marenich, 
 J. Bloino, B. G. Janesko, R. Gomperts, B. Mennucci, H. P. Hratchian, 
 J. V. Ortiz, A. F. Izmaylov, J. L. Sonnenberg, D. Williams-Young, 
 F. Ding, F. Lipparini, F. Egidi, J. Goings, B. Peng, A. Petrone, 
 T. Henderson, D. Ranasinghe, V. G. Zakrzewski, J. Gao, N. Rega, 
 G. Zheng, W. Liang, M. Hada, M. Ehara, K. Toyota, R. Fukuda, 
 J. Hasegawa, M. Ishida, T. Nakajima, Y. Honda, O. Kitao, H. Nakai, 
 T. Vreven, K. Throssell, J. A. Montgomery, Jr., J. E. Peralta, 
 F. Ogliaro, M. J. Bearpark, J. J. Heyd, E. N. Brothers, K. N. Kudin, 
 V. N. Staroverov, T. A. Keith, R. Kobayashi, J. Normand, 
 K. Raghavachari, A. P. Rendell, J. C. Burant, S. S. Iyengar, 
 J. Tomasi, M. Cossi, J. M. Millam, M. Klene, C. Adamo, R. Cammi, 
 J. W. Ochterski, R. L. Martin, K. Morokuma, O. Farkas, 
 J. B. Foresman, and D. J. Fox, Gaussian, Inc., Wallingford CT, 2016.
 
 ******************************************
 Gaussian 16:  EM64W-G16RevB.01 16-Dec-2017
                11-Sep-2020 
 ******************************************
 %nprocshared = 6
 Will use up to    6 processors via shared memory.
 %chk=C:\Users\no83wec\Documents\BA_projektmodul\2020_09_11\triglycin\triglycin.c
 hk
 -------------------------------------------------------------------
 # opt freq(raman, printderivatives) b3lyp/6-31+G* geom=connectivity
 -------------------------------------------------------------------
 1/18=20,19=15,26=3,38=1,57=2/1,3;
 2/9=110,12=2,17=6,18=5,40=1/2;
 3/5=1,6=6,7=11,11=2,25=1,30=1,71=1,74=-5/1,2,3;
 4//1;
 5/5=2,38=5/2;
 6/7=2,8=2,9=2,10=2,28=1/1;
 7//1,2,3,16;
 1/18=20,19=15,26=3/3(2);
 2/9=110/2;
 99//99;
 2/9=110/2;
 3/5=1,6=6,7=11,11=2,25=1,30=1,71=1,74=-5/1,2,3;
 4/5=5,16=3,69=1/1;
 5/5=2,38=5/2;
 7//1,2,3,16;
 1/18=20,19=15,26=3/3(-5);
 2/9=110/2;
 6/7=2,8=2,9=2,10=2,19=2,28=1/1;
 99/9=1/99;
 --------------------------------------------
 Triglycin Optimierung Frequenzrechnung Raman
 --------------------------------------------
 Symbolic Z-matrix:
 Charge =  0 Multiplicity = 1
 C                    -3.06753  -5.90476   1.03699 
 H                    -2.76127  -4.91113   0.78439 
 H                    -2.74608  -6.58201   0.27351 
 N                    -2.46496  -6.2918    2.32074 
 H                    -2.75118  -7.22043   2.55681 
 O                    -5.40857  -5.07388   0.36776 
 H                    -6.25106  -5.49383   0.17946 
 C                    -4.60223  -5.95464   1.15451 
 O                    -5.14672  -6.77046   1.94288 
 C                    -1.00002  -6.24419   2.20856 
 O                    -0.36351  -7.26595   1.84191 
 C                    -0.24426  -4.94391   2.53975 
 H                    -0.15239  -4.34948   1.65481 
 H                    -0.78543  -4.39618   3.28273 
 N                     1.09443  -5.27184   3.05091 
 H                     1.58518  -4.4275    3.26597 
 C                     1.83791  -6.02433   2.03017 
 C                     1.55373  -5.78258   0.53605 
 H                     0.53185  -5.49144   0.4099 
 H                     2.19341  -5.00572   0.17246 
 N                     1.80753  -7.01906  -0.21733 
 H                     1.20969  -7.7451    0.12248 
 H                     1.62299  -6.86208  -1.18754 
 O                     2.7066   -6.86604   2.37728 
 

 GradGradGradGradGradGradGradGradGradGradGradGradGradGradGradGradGradGrad
 Berny optimization.
 Initialization pass.
                           ----------------------------
                           !    Initial Parameters    !
                           ! (Angstroms and Degrees)  !
 --------------------------                            --------------------------
 ! Name  Definition              Value          Derivative Info.                !
 --------------------------------------------------------------------------------
 ! R1    R(1,2)                  1.07           estimate D2E/DX2                !
 ! R2    R(1,3)                  1.07           estimate D2E/DX2                !
 ! R3    R(1,4)                  1.47           estimate D2E/DX2                !
 ! R4    R(1,8)                  1.54           estimate D2E/DX2                !
 ! R5    R(4,5)                  1.0            estimate D2E/DX2                !
 ! R6    R(4,10)                 1.47           estimate D2E/DX2                !
 ! R7    R(6,7)                  0.96           estimate D2E/DX2                !
 ! R8    R(6,8)                  1.43           estimate D2E/DX2                !
 ! R9    R(8,9)                  1.2584         estimate D2E/DX2                !
 ! R10   R(10,11)                1.2584         estimate D2E/DX2                !
 ! R11   R(10,12)                1.54           estimate D2E/DX2                !
 ! R12   R(12,13)                1.07           estimate D2E/DX2                !
 ! R13   R(12,14)                1.07           estimate D2E/DX2                !
 ! R14   R(12,15)                1.47           estimate D2E/DX2                !
 ! R15   R(15,16)                1.0            estimate D2E/DX2                !
 ! R16   R(15,17)                1.47           estimate D2E/DX2                !
 ! R17   R(17,18)                1.54           estimate D2E/DX2                !
 ! R18   R(17,24)                1.2584         estimate D2E/DX2                !
 ! R19   R(18,19)                1.07           estimate D2E/DX2                !
 ! R20   R(18,20)                1.07           estimate D2E/DX2                !
 ! R21   R(18,21)                1.47           estimate D2E/DX2                !
 ! R22   R(21,22)                1.0            estimate D2E/DX2                !
 ! R23   R(21,23)                1.0            estimate D2E/DX2                !
 ! A1    A(2,1,3)              109.4712         estimate D2E/DX2                !
 ! A2    A(2,1,4)              109.4712         estimate D2E/DX2                !
 ! A3    A(2,1,8)              109.4712         estimate D2E/DX2                !
 ! A4    A(3,1,4)              109.4712         estimate D2E/DX2                !
 ! A5    A(3,1,8)              109.4712         estimate D2E/DX2                !
 ! A6    A(4,1,8)              109.4712         estimate D2E/DX2                !
 ! A7    A(1,4,5)              109.4712         estimate D2E/DX2                !
 ! A8    A(1,4,10)             109.4712         estimate D2E/DX2                !
 ! A9    A(5,4,10)             109.4712         estimate D2E/DX2                !
 ! A10   A(7,6,8)              109.4712         estimate D2E/DX2                !
 ! A11   A(1,8,6)              120.0            estimate D2E/DX2                !
 ! A12   A(1,8,9)              120.0            estimate D2E/DX2                !
 ! A13   A(6,8,9)              120.0            estimate D2E/DX2                !
 ! A14   A(4,10,11)            120.0            estimate D2E/DX2                !
 ! A15   A(4,10,12)            120.0            estimate D2E/DX2                !
 ! A16   A(11,10,12)           120.0            estimate D2E/DX2                !
 ! A17   A(10,12,13)           109.4712         estimate D2E/DX2                !
 ! A18   A(10,12,14)           109.4712         estimate D2E/DX2                !
 ! A19   A(10,12,15)           109.4712         estimate D2E/DX2                !
 ! A20   A(13,12,14)           109.4712         estimate D2E/DX2                !
 ! A21   A(13,12,15)           109.4712         estimate D2E/DX2                !
 ! A22   A(14,12,15)           109.4712         estimate D2E/DX2                !
 ! A23   A(12,15,16)           109.4712         estimate D2E/DX2                !
 ! A24   A(12,15,17)           109.4712         estimate D2E/DX2                !
 ! A25   A(16,15,17)           109.4712         estimate D2E/DX2                !
 ! A26   A(15,17,18)           120.0            estimate D2E/DX2                !
 ! A27   A(15,17,24)           120.0            estimate D2E/DX2                !
 ! A28   A(18,17,24)           120.0            estimate D2E/DX2                !
 ! A29   A(17,18,19)           109.4712         estimate D2E/DX2                !
 ! A30   A(17,18,20)           109.4712         estimate D2E/DX2                !
 ! A31   A(17,18,21)           109.4712         estimate D2E/DX2                !
 ! A32   A(19,18,20)           109.4712         estimate D2E/DX2                !
 ! A33   A(19,18,21)           109.4712         estimate D2E/DX2                !
 ! A34   A(20,18,21)           109.4712         estimate D2E/DX2                !
 ! A35   A(18,21,22)           109.4712         estimate D2E/DX2                !
 ! A36   A(18,21,23)           109.4712         estimate D2E/DX2                !
 ! A37   A(22,21,23)           109.4712         estimate D2E/DX2                !
 ! D1    D(2,1,4,5)            180.0            estimate D2E/DX2                !
 ! D2    D(2,1,4,10)           -60.0            estimate D2E/DX2                !
 ! D3    D(3,1,4,5)            -60.0            estimate D2E/DX2                !
 ! D4    D(3,1,4,10)            60.0            estimate D2E/DX2                !
 ! D5    D(8,1,4,5)             60.0            estimate D2E/DX2                !
 ! D6    D(8,1,4,10)           180.0            estimate D2E/DX2                !
 ! D7    D(2,1,8,6)             30.0            estimate D2E/DX2                !
 ! D8    D(2,1,8,9)           -150.0            estimate D2E/DX2                !
 ! D9    D(3,1,8,6)            -90.0            estimate D2E/DX2                !
 ! D10   D(3,1,8,9)             90.0            estimate D2E/DX2                !
 ! D11   D(4,1,8,6)            150.0            estimate D2E/DX2                !
 ! D12   D(4,1,8,9)            -30.0            estimate D2E/DX2                !
 ! D13   D(1,4,10,11)          -90.0            estimate D2E/DX2                !
 ! D14   D(1,4,10,12)           90.0            estimate D2E/DX2                !
 ! D15   D(5,4,10,11)           30.0            estimate D2E/DX2                !
 ! D16   D(5,4,10,12)         -150.0            estimate D2E/DX2                !
 ! D17   D(7,6,8,1)            150.0            estimate D2E/DX2                !
 ! D18   D(7,6,8,9)            -30.0            estimate D2E/DX2                !
 ! D19   D(4,10,12,13)         -90.0            estimate D2E/DX2                !
 ! D20   D(4,10,12,14)          30.0            estimate D2E/DX2                !
 ! D21   D(4,10,12,15)         150.0            estimate D2E/DX2                !
 ! D22   D(11,10,12,13)         90.0            estimate D2E/DX2                !
 ! D23   D(11,10,12,14)       -150.0            estimate D2E/DX2                !
 ! D24   D(11,10,12,15)        -30.0            estimate D2E/DX2                !
 ! D25   D(10,12,15,16)        180.0            estimate D2E/DX2                !
 ! D26   D(10,12,15,17)         60.0            estimate D2E/DX2                !
 ! D27   D(13,12,15,16)         60.0            estimate D2E/DX2                !
 ! D28   D(13,12,15,17)        -60.0            estimate D2E/DX2                !
 ! D29   D(14,12,15,16)        -60.0            estimate D2E/DX2                !
 ! D30   D(14,12,15,17)        180.0            estimate D2E/DX2                !
 ! D31   D(12,15,17,18)         30.0            estimate D2E/DX2                !
 ! D32   D(12,15,17,24)       -150.0            estimate D2E/DX2                !
 ! D33   D(16,15,17,18)        -90.0            estimate D2E/DX2                !
 ! D34   D(16,15,17,24)         90.0            estimate D2E/DX2                !
 ! D35   D(15,17,18,19)        -30.0            estimate D2E/DX2                !
 ! D36   D(15,17,18,20)         90.0            estimate D2E/DX2                !
 ! D37   D(15,17,18,21)       -150.0            estimate D2E/DX2                !
 ! D38   D(24,17,18,19)        150.0            estimate D2E/DX2                !
 ! D39   D(24,17,18,20)        -90.0            estimate D2E/DX2                !
 ! D40   D(24,17,18,21)         30.0            estimate D2E/DX2                !
 ! D41   D(17,18,21,22)         60.0            estimate D2E/DX2                !
 ! D42   D(17,18,21,23)        180.0            estimate D2E/DX2                !
 ! D43   D(19,18,21,22)        -60.0            estimate D2E/DX2                !
 ! D44   D(19,18,21,23)         60.0            estimate D2E/DX2                !
 ! D45   D(20,18,21,22)        180.0            estimate D2E/DX2                !
 ! D46   D(20,18,21,23)        -60.0            estimate D2E/DX2                !
 --------------------------------------------------------------------------------
 Trust Radius=3.00D-01 FncErr=1.00D-07 GrdErr=1.00D-06 EigMax=2.50D+02 EigMin=1.00D-04
 Number of steps in this run=    116 maximum allowed number of steps=    144.
 GradGradGradGradGradGradGradGradGradGradGradGradGradGradGradGradGradGrad

                          Input orientation:                          
 ---------------------------------------------------------------------
 Center     Atomic      Atomic             Coordinates (Angstroms)
 Number     Number       Type             X           Y           Z
 ---------------------------------------------------------------------
      1          6           0       -3.067530   -5.904761    1.036992
      2          1           0       -2.761267   -4.911133    0.784393
      3          1           0       -2.746083   -6.582012    0.273510
      4          7           0       -2.464957   -6.291801    2.320739
      5          1           0       -2.751184   -7.220425    2.556812
      6          8           0       -5.408568   -5.073880    0.367756
      7          1           0       -6.251058   -5.493829    0.179463
      8          6           0       -4.602229   -5.954639    1.154510
      9          8           0       -5.146719   -6.770464    1.942883
     10          6           0       -1.000017   -6.244190    2.208562
     11          8           0       -0.363513   -7.265952    1.841906
     12          6           0       -0.244256   -4.943905    2.539749
     13          1           0       -0.152389   -4.349483    1.654807
     14          1           0       -0.785432   -4.396179    3.282733
     15          7           0        1.094427   -5.271844    3.050909
     16          1           0        1.585181   -4.427503    3.265966
     17          6           0        1.837912   -6.024327    2.030174
     18          6           0        1.553726   -5.782577    0.536054
     19          1           0        0.531852   -5.491440    0.409905
     20          1           0        2.193406   -5.005718    0.172462
     21          7           0        1.807526   -7.019063   -0.217330
     22          1           0        1.209694   -7.745100    0.122475
     23          1           0        1.622990   -6.862083   -1.187538
     24          8           0        2.706596   -6.866037    2.377280
 ---------------------------------------------------------------------
                    Distance matrix (angstroms):
                    1          2          3          4          5
     1  C    0.000000
     2  H    1.070000   0.000000
     3  H    1.070000   1.747303   0.000000
     4  N    1.470000   2.086720   2.086720   0.000000
     5  H    2.034920   2.911082   2.370879   1.000000   0.000000
     6  O    2.572683   2.684824   3.061399   3.736619   4.057254
     7  H    3.322510   3.589445   3.671217   4.422260   4.569687
     8  C    1.540000   2.148263   2.148263   2.457987   2.644813
     9  O    2.427572   3.238764   2.930080   2.750226   2.513556
    10  C    2.400500   2.628174   2.628174   1.470000   2.034920
    11  O    3.132481   3.523170   2.933306   2.365231   2.492817
    12  C    3.339521   3.068826   3.752116   2.606971   3.386373
    13  H    3.361344   2.807012   3.690450   3.092577   3.976136
    14  H    3.539371   3.226578   4.204455   2.709173   3.516746
    15  N    4.666726   4.487046   4.917317   3.773947   4.339335
    16  H    5.366408   5.028290   5.688282   4.557705   5.206474
    17  C    5.006402   4.893221   4.940637   4.320955   4.771562
    18  C    4.649932   4.409109   4.381368   4.426535   4.968211
    19  H    3.676904   3.364763   3.457284   3.643175   4.286832
    20  H    5.406768   4.993214   5.185891   5.288615   5.919377
    21  N    5.155692   5.130369   4.600793   5.022431   5.340248
    22  H    4.745295   4.923213   4.125986   4.521891   4.678657
    23  H    5.278823   5.188104   4.615398   5.417060   5.769052
    24  O    6.005077   6.021333   5.851344   5.203643   5.472219
                    6          7          8          9         10
     6  O    0.000000
     7  H    0.960000   0.000000
     8  C    1.430000   1.970203   0.000000
     9  O    2.329803   2.441108   1.258400   0.000000
    10  C    4.918691   5.679236   3.764412   4.188400   0.000000
    11  O    5.694812   6.369249   4.489852   4.809862   1.258400
    12  C    5.603978   6.477271   4.683204   5.265616   1.540000
    13  H    5.459732   6.378082   4.756879   5.557650   2.148263
    14  H    5.507246   6.380297   4.639620   5.143272   2.148263
    15  N    7.037574   7.889907   6.042717   6.513485   2.457987
    16  H    7.598022   8.489416   6.713749   7.249723   3.331921
    17  C    7.495229   8.314926   6.499774   7.024913   2.852017
    18  C    7.000293   7.818259   6.189335   6.917445   3.087389
    19  H    5.955227   6.786824   5.208433   6.019310   2.479601
    20  H    7.604788   8.458562   6.931488   7.754105   3.984654
    21  N    7.496538   8.211246   6.640776   7.286278   3.790472
    22  H    7.141216   7.793221   6.168411   6.683396   3.389293
    23  H    7.420203   8.108109   6.712823   7.459013   4.335372
    24  O    8.550199   9.324855   7.466240   7.865901   3.762198
                   11         12         13         14         15
    11  O    0.000000
    12  C    2.427572   0.000000
    13  H    2.930080   1.070000   0.000000
    14  H    3.238764   1.070000   1.747303   0.000000
    15  N    2.750226   1.470000   2.086720   2.086720   0.000000
    16  H    3.725875   2.034920   2.370879   2.370879   1.000000
    17  C    2.534432   2.400500   2.628174   3.331921   1.470000
    18  C    2.753444   2.819735   2.493230   3.864971   2.606971
    19  H    2.449734   2.332033   1.822645   3.344843   2.709173
    20  H    3.799149   3.398539   2.851446   4.349574   3.092577
    21  N    3.002468   4.014670   3.804317   5.084623   3.773947
    22  H    2.379287   3.975409   3.966551   5.018269   3.834841
    23  H    3.645111   4.588974   4.188563   5.644865   4.557705
    24  O    3.141993   3.525410   3.876701   4.371991   2.365231
                   16         17         18         19         20
    16  H    0.000000
    17  C    2.034920   0.000000
    18  C    3.047890   1.540000   0.000000
    19  H    3.224678   2.148263   1.070000   0.000000
    20  H    3.205313   2.148263   1.070000   1.747303   0.000000
    21  N    4.347295   2.457987   1.470000   2.086720   2.086720
    22  H    4.585736   2.644813   2.034920   2.370879   2.911082
    23  H    5.075658   3.331921   2.034920   2.370879   2.370879
    24  O    2.827328   1.258400   2.427572   3.238764   2.930080
                   21         22         23         24
    21  N    0.000000
    22  H    1.000000   0.000000
    23  H    1.000000   1.632993   0.000000
    24  O    2.750226   2.845630   3.725875   0.000000
 Stoichiometry    C6H11N3O4
 Framework group  C1[X(C6H11N3O4)]
 Deg. of freedom    66
 Full point group                 C1      NOp   1
 Largest Abelian subgroup         C1      NOp   1
 Largest concise Abelian subgroup C1      NOp   1
                         Standard orientation:                         
 ---------------------------------------------------------------------
 Center     Atomic      Atomic             Coordinates (Angstroms)
 Number     Number       Type             X           Y           Z
 ---------------------------------------------------------------------
      1          6           0       -2.063817    0.363438    0.187675
      2          1           0       -1.827232    0.349866    1.231104
      3          1           0       -1.756525    1.296875   -0.235607
      4          7           0       -1.360806   -0.736312   -0.488508
      5          1           0       -1.581914   -0.723628   -1.463674
      6          8           0       -4.483458    0.669621    1.006389
      7          1           0       -5.312907    0.925236    0.596175
      8          6           0       -3.583083    0.191642    0.003512
      9          8           0       -4.032211   -0.369361   -1.029508
     10          6           0        0.089403   -0.572325   -0.312715
     11          8           0        0.754232    0.088523   -1.152270
     12          6           0        0.795067   -1.209258    0.898877
     13          1           0        0.798649   -0.516486    1.714324
     14          1           0        0.274331   -2.098072    1.188261
     15          7           0        2.179138   -1.547911    0.537543
     16          1           0        2.637361   -1.961504    1.324291
     17          6           0        2.894541   -0.326830    0.139978
     18          6           0        2.503043    1.029713    0.754893
     19          1           0        1.461249    1.023359    0.998870
     20          1           0        3.076249    1.197617    1.642668
     21          7           0        2.773101    2.102651   -0.212977
     22          1           0        2.237395    1.945731   -1.042672
     23          1           0        2.518881    2.983522    0.186319
     24          8           0        3.826876   -0.390007   -0.702834
 ---------------------------------------------------------------------
 Rotational constants (GHZ):           1.7858276           0.3187702           0.3041787
 Standard basis: 6-31+G(d) (6D, 7F)
 There are   269 symmetry adapted cartesian basis functions of A   symmetry.
 There are   269 symmetry adapted basis functions of A   symmetry.
   269 basis functions,   460 primitive gaussians,   269 cartesian basis functions
    50 alpha electrons       50 beta electrons
       nuclear repulsion energy       810.4387934715 Hartrees.
 NAtoms=   24 NActive=   24 NUniq=   24 SFac= 1.00D+00 NAtFMM=   60 NAOKFM=F Big=F
 Integral buffers will be    131072 words long.
 Raffenetti 2 integral format.
 Two-electron integral symmetry is turned on.
 One-electron integrals computed using PRISM.
 NBasis=   269 RedAO= T EigKep=  2.76D-05  NBF=   269
 NBsUse=   269 1.00D-06 EigRej= -1.00D+00 NBFU=   269
 ExpMin= 4.38D-02 ExpMax= 5.48D+03 ExpMxC= 8.25D+02 IAcc=3 IRadAn=         5 AccDes= 0.00D+00
 Harris functional with IExCor=  402 and IRadAn=       5 diagonalized for initial guess.
 HarFok:  IExCor=  402 AccDes= 0.00D+00 IRadAn=         5 IDoV= 1 UseB2=F ITyADJ=14
 ICtDFT=  3500011 ScaDFX=  1.000000  1.000000  1.000000  1.000000
 FoFCou: FMM=F IPFlag=           0 FMFlag=      100000 FMFlg1=           0
         NFxFlg=           0 DoJE=T BraDBF=F KetDBF=T FulRan=T
         wScrn=  0.000000 ICntrl=       500 IOpCl=  0 I1Cent=   200000004 NGrid=           0
         NMat0=    1 NMatS0=      1 NMatT0=    0 NMatD0=    1 NMtDS0=    0 NMtDT0=    0
 Petite list used in FoFCou.
 Requested convergence on RMS density matrix=1.00D-08 within 128 cycles.
 Requested convergence on MAX density matrix=1.00D-06.
 Requested convergence on             energy=1.00D-06.
 No special actions if energy rises.
 SCF Done:  E(RB3LYP) =  -700.369070188     A.U. after   15 cycles
            NFock= 15  Conv=0.49D-08     -V/T= 2.0098

 **********************************************************************

            Population analysis using the SCF Density.

 **********************************************************************

 Orbital symmetries:
       Occupied  (A) (A) (A) (A) (A) (A) (A) (A) (A) (A) (A) (A)
                 (A) (A) (A) (A) (A) (A) (A) (A) (A) (A) (A) (A)
                 (A) (A) (A) (A) (A) (A) (A) (A) (A) (A) (A) (A)
                 (A) (A) (A) (A) (A) (A) (A) (A) (A) (A) (A) (A)
                 (A) (A)
       Virtual   (A) (A) (A) (A) (A) (A) (A) (A) (A) (A) (A) (A)
                 (A) (A) (A) (A) (A) (A) (A) (A) (A) (A) (A) (A)
                 (A) (A) (A) (A) (A) (A) (A) (A) (A) (A) (A) (A)
                 (A) (A) (A) (A) (A) (A) (A) (A) (A) (A) (A) (A)
                 (A) (A) (A) (A) (A) (A) (A) (A) (A) (A) (A) (A)
                 (A) (A) (A) (A) (A) (A) (A) (A) (A) (A) (A) (A)
                 (A) (A) (A) (A) (A) (A) (A) (A) (A) (A) (A) (A)
                 (A) (A) (A) (A) (A) (A) (A) (A) (A) (A) (A) (A)
                 (A) (A) (A) (A) (A) (A) (A) (A) (A) (A) (A) (A)
                 (A) (A) (A) (A) (A) (A) (A) (A) (A) (A) (A) (A)
                 (A) (A) (A) (A) (A) (A) (A) (A) (A) (A) (A) (A)
                 (A) (A) (A) (A) (A) (A) (A) (A) (A) (A) (A) (A)
                 (A) (A) (A) (A) (A) (A) (A) (A) (A) (A) (A) (A)
                 (A) (A) (A) (A) (A) (A) (A) (A) (A) (A) (A) (A)
                 (A) (A) (A) (A) (A) (A) (A) (A) (A) (A) (A) (A)
                 (A) (A) (A) (A) (A) (A) (A) (A) (A) (A) (A) (A)
                 (A) (A) (A) (A) (A) (A) (A) (A) (A) (A) (A) (A)
                 (A) (A) (A) (A) (A) (A) (A) (A) (A) (A) (A) (A)
                 (A) (A) (A)
 The electronic state is 1-A.
 Alpha  occ. eigenvalues --  -19.23466 -19.19367 -19.19105 -19.14417 -14.38390
 Alpha  occ. eigenvalues --  -14.37005 -14.31882 -10.37638 -10.35039 -10.31120
 Alpha  occ. eigenvalues --  -10.28222 -10.26109 -10.23028  -1.11623  -1.08128
 Alpha  occ. eigenvalues --   -1.04007  -1.02788  -0.95072  -0.93752  -0.89046
 Alpha  occ. eigenvalues --   -0.77811  -0.74831  -0.71539  -0.64506  -0.61448
 Alpha  occ. eigenvalues --   -0.58744  -0.55127  -0.53014  -0.52624  -0.52325
 Alpha  occ. eigenvalues --   -0.50934  -0.50182  -0.48626  -0.47858  -0.46627
 Alpha  occ. eigenvalues --   -0.45289  -0.44258  -0.43962  -0.42679  -0.41117
 Alpha  occ. eigenvalues --   -0.40614  -0.39569  -0.35713  -0.35425  -0.32564
 Alpha  occ. eigenvalues --   -0.31586  -0.28577  -0.27944  -0.26044  -0.23956
 Alpha virt. eigenvalues --   -0.07894  -0.05990  -0.03092  -0.02511  -0.01240
 Alpha virt. eigenvalues --   -0.00208   0.01148   0.01315   0.02995   0.03369
 Alpha virt. eigenvalues --    0.05031   0.05293   0.05863   0.06604   0.07089
 Alpha virt. eigenvalues --    0.07517   0.08719   0.08932   0.09508   0.10472
 Alpha virt. eigenvalues --    0.10967   0.11282   0.11738   0.12679   0.13317
 Alpha virt. eigenvalues --    0.14324   0.14549   0.15952   0.16052   0.16180
 Alpha virt. eigenvalues --    0.16930   0.17585   0.17777   0.17887   0.18911
 Alpha virt. eigenvalues --    0.19335   0.19995   0.20467   0.20971   0.21171
 Alpha virt. eigenvalues --    0.21838   0.22297   0.23205   0.23410   0.23637
 Alpha virt. eigenvalues --    0.24453   0.24901   0.25705   0.25960   0.26769
 Alpha virt. eigenvalues --    0.27077   0.27654   0.28046   0.28396   0.28749
 Alpha virt. eigenvalues --    0.29741   0.29950   0.30465   0.31030   0.31495
 Alpha virt. eigenvalues --    0.32495   0.32867   0.34208   0.34804   0.35361
 Alpha virt. eigenvalues --    0.36060   0.36406   0.36758   0.38461   0.38814
 Alpha virt. eigenvalues --    0.39595   0.39937   0.41007   0.41245   0.43060
 Alpha virt. eigenvalues --    0.44740   0.47715   0.48533   0.61958   0.64816
 Alpha virt. eigenvalues --    0.65123   0.66188   0.67458   0.70022   0.71739
 Alpha virt. eigenvalues --    0.72066   0.73306   0.75264   0.77663   0.77999
 Alpha virt. eigenvalues --    0.79707   0.81510   0.82512   0.83770   0.89313
 Alpha virt. eigenvalues --    0.90257   0.91824   0.93325   0.95873   0.97245
 Alpha virt. eigenvalues --    0.97710   0.98759   0.99173   1.00314   1.02753
 Alpha virt. eigenvalues --    1.03434   1.05020   1.05937   1.06563   1.07507
 Alpha virt. eigenvalues --    1.08505   1.09405   1.10377   1.11578   1.13255
 Alpha virt. eigenvalues --    1.14115   1.15951   1.17419   1.17569   1.20242
 Alpha virt. eigenvalues --    1.23118   1.24890   1.25743   1.27235   1.29203
 Alpha virt. eigenvalues --    1.30336   1.30588   1.32779   1.35443   1.36463
 Alpha virt. eigenvalues --    1.36846   1.38295   1.39561   1.40601   1.42798
 Alpha virt. eigenvalues --    1.44135   1.45683   1.46261   1.48655   1.52661
 Alpha virt. eigenvalues --    1.56563   1.58188   1.59868   1.61607   1.64641
 Alpha virt. eigenvalues --    1.66931   1.68356   1.69553   1.71365   1.72618
 Alpha virt. eigenvalues --    1.73640   1.75401   1.75708   1.79087   1.80705
 Alpha virt. eigenvalues --    1.82673   1.84121   1.85373   1.87044   1.89380
 Alpha virt. eigenvalues --    1.90011   1.91247   1.93967   1.95447   1.98115
 Alpha virt. eigenvalues --    1.98407   2.01461   2.02928   2.03478   2.06068
 Alpha virt. eigenvalues --    2.07079   2.11572   2.16192   2.18123   2.19624
 Alpha virt. eigenvalues --    2.20218   2.25379   2.28345   2.31306   2.35254
 Alpha virt. eigenvalues --    2.36896   2.39580   2.41045   2.41947   2.43929
 Alpha virt. eigenvalues --    2.46242   2.46737   2.50103   2.52165   2.53366
 Alpha virt. eigenvalues --    2.57772   2.59117   2.61501   2.63974   2.70403
 Alpha virt. eigenvalues --    2.73949   2.76135   2.79891   2.82705   2.84517
 Alpha virt. eigenvalues --    2.96619   2.98229   3.01188   3.03113   3.05830
 Alpha virt. eigenvalues --    3.14000   3.97645   4.03006   4.07829   4.13460
 Alpha virt. eigenvalues --    4.22559   4.27964   4.29057   4.36542   4.40774
 Alpha virt. eigenvalues --    4.49277   4.53256   4.57470   4.61928
          Condensed to atoms (all electrons):
               1          2          3          4          5          6
     1  C    7.474532   0.306024   0.455018   0.075459  -0.103482  -0.148727
     2  H    0.306024   0.487569  -0.039475  -0.048450   0.004238   0.003236
     3  H    0.455018  -0.039475   0.517696  -0.113213  -0.002410   0.005838
     4  N    0.075459  -0.048450  -0.113213   7.242852   0.279957   0.000020
     5  H   -0.103482   0.004238  -0.002410   0.279957   0.320181   0.000218
     6  O   -0.148727   0.003236   0.005838   0.000020   0.000218   8.460841
     7  H    0.024358   0.000031  -0.000466   0.000624   0.000001   0.170656
     8  C   -1.368224   0.021819  -0.085195   0.103122   0.015007   0.230701
     9  O   -0.081407   0.005715  -0.003580   0.001737   0.007421  -0.110738
    10  C   -0.126222   0.033103   0.005461   0.098242   0.052054  -0.006757
    11  O   -0.032154  -0.003062   0.012911  -0.165627  -0.005973   0.000164
    12  C   -0.102650  -0.006222   0.001010  -0.081588  -0.003297   0.001226
    13  H   -0.023812  -0.000462   0.000189  -0.010131  -0.000090  -0.000022
    14  H    0.009395   0.000066  -0.000011   0.012428  -0.000092   0.000017
    15  N    0.038783   0.000100  -0.000275   0.015191   0.000357  -0.000001
    16  H   -0.001605   0.000002   0.000000  -0.000774   0.000003   0.000000
    17  C   -0.059848   0.003167  -0.001352  -0.041195   0.003176   0.000110
    18  C    0.004212  -0.002593  -0.002656   0.041841  -0.000609  -0.000275
    19  H   -0.000997   0.000075  -0.000003  -0.003052   0.000024   0.000004
    20  H    0.000164   0.000001  -0.000001  -0.000006   0.000000   0.000000
    21  N    0.007058   0.000112   0.000768  -0.001754   0.000009   0.000014
    22  H    0.000524   0.000002  -0.000033   0.001150   0.000000   0.000000
    23  H   -0.000840   0.000000  -0.000002  -0.000172   0.000000   0.000000
    24  O    0.001314  -0.000005   0.000004   0.000860  -0.000018   0.000000
               7          8          9         10         11         12
     1  C    0.024358  -1.368224  -0.081407  -0.126222  -0.032154  -0.102650
     2  H    0.000031   0.021819   0.005715   0.033103  -0.003062  -0.006222
     3  H   -0.000466  -0.085195  -0.003580   0.005461   0.012911   0.001010
     4  N    0.000624   0.103122   0.001737   0.098242  -0.165627  -0.081588
     5  H    0.000001   0.015007   0.007421   0.052054  -0.005973  -0.003297
     6  O    0.170656   0.230701  -0.110738  -0.006757   0.000164   0.001226
     7  H    0.312904  -0.004696   0.002925   0.000091  -0.000001  -0.000107
     8  C   -0.004696   6.315674   0.434598  -0.385847  -0.010086   0.147832
     9  O    0.002925   0.434598   8.144329   0.012717  -0.000702  -0.003364
    10  C    0.000091  -0.385847   0.012717   6.556269   0.576255  -0.688967
    11  O   -0.000001  -0.010086  -0.000702   0.576255   8.097161  -0.102417
    12  C   -0.000107   0.147832  -0.003364  -0.688967  -0.102417   6.583628
    13  H    0.000000  -0.005814  -0.000015   0.036430  -0.006258   0.379115
    14  H    0.000000   0.003518   0.000008  -0.107494   0.006843   0.432205
    15  N    0.000000   0.012002  -0.000028  -0.030780  -0.034424   0.056992
    16  H    0.000000  -0.000084   0.000000   0.014102   0.000006  -0.052980
    17  C    0.000002  -0.006822  -0.000070  -0.041281   0.098216   0.076828
    18  C   -0.000002  -0.005952   0.000095   0.155311  -0.096826  -0.410260
    19  H    0.000000  -0.002574   0.000009   0.076625  -0.011960  -0.077890
    20  H    0.000000  -0.000002   0.000000   0.002063   0.001771  -0.002158
    21  N    0.000000   0.005751  -0.000038  -0.095174  -0.008664   0.137383
    22  H    0.000000  -0.000095   0.000000   0.003790   0.009401  -0.003826
    23  H    0.000000  -0.000125   0.000000  -0.002878  -0.001679   0.001872
    24  O    0.000000  -0.000167   0.000000  -0.043041   0.004388   0.028332
              13         14         15         16         17         18
     1  C   -0.023812   0.009395   0.038783  -0.001605  -0.059848   0.004212
     2  H   -0.000462   0.000066   0.000100   0.000002   0.003167  -0.002593
     3  H    0.000189  -0.000011  -0.000275   0.000000  -0.001352  -0.002656
     4  N   -0.010131   0.012428   0.015191  -0.000774  -0.041195   0.041841
     5  H   -0.000090  -0.000092   0.000357   0.000003   0.003176  -0.000609
     6  O   -0.000022   0.000017  -0.000001   0.000000   0.000110  -0.000275
     7  H    0.000000   0.000000   0.000000   0.000000   0.000002  -0.000002
     8  C   -0.005814   0.003518   0.012002  -0.000084  -0.006822  -0.005952
     9  O   -0.000015   0.000008  -0.000028   0.000000  -0.000070   0.000095
    10  C    0.036430  -0.107494  -0.030780   0.014102  -0.041281   0.155311
    11  O   -0.006258   0.006843  -0.034424   0.000006   0.098216  -0.096826
    12  C    0.379115   0.432205   0.056992  -0.052980   0.076828  -0.410260
    13  H    0.546256  -0.033922  -0.109068  -0.001958   0.046739  -0.054142
    14  H   -0.033922   0.470646  -0.040054  -0.002919  -0.003899   0.011664
    15  N   -0.109068  -0.040054   7.661635   0.261823  -0.256975  -0.080652
    16  H   -0.001958  -0.002919   0.261823   0.359105   0.019201  -0.003837
    17  C    0.046739  -0.003899  -0.256975   0.019201   6.350470  -0.798076
    18  C   -0.054142   0.011664  -0.080652  -0.003837  -0.798076   6.693821
    19  H   -0.001719   0.001417   0.013745  -0.000282  -0.180865   0.556198
    20  H    0.000550  -0.000054   0.011418  -0.000150  -0.043750   0.388547
    21  N    0.001133  -0.001060   0.018836   0.000110   0.097585  -0.125807
    22  H    0.000048   0.000000   0.003517  -0.000007  -0.044164   0.001397
    23  H    0.000031   0.000000  -0.002668   0.000007   0.023387  -0.038694
    24  O    0.000172  -0.000032  -0.085114  -0.005820   0.545852  -0.112712
              19         20         21         22         23         24
     1  C   -0.000997   0.000164   0.007058   0.000524  -0.000840   0.001314
     2  H    0.000075   0.000001   0.000112   0.000002   0.000000  -0.000005
     3  H   -0.000003  -0.000001   0.000768  -0.000033  -0.000002   0.000004
     4  N   -0.003052  -0.000006  -0.001754   0.001150  -0.000172   0.000860
     5  H    0.000024   0.000000   0.000009   0.000000   0.000000  -0.000018
     6  O    0.000004   0.000000   0.000014   0.000000   0.000000   0.000000
     7  H    0.000000   0.000000   0.000000   0.000000   0.000000   0.000000
     8  C   -0.002574  -0.000002   0.005751  -0.000095  -0.000125  -0.000167
     9  O    0.000009   0.000000  -0.000038   0.000000   0.000000   0.000000
    10  C    0.076625   0.002063  -0.095174   0.003790  -0.002878  -0.043041
    11  O   -0.011960   0.001771  -0.008664   0.009401  -0.001679   0.004388
    12  C   -0.077890  -0.002158   0.137383  -0.003826   0.001872   0.028332
    13  H   -0.001719   0.000550   0.001133   0.000048   0.000031   0.000172
    14  H    0.001417  -0.000054  -0.001060   0.000000   0.000000  -0.000032
    15  N    0.013745   0.011418   0.018836   0.003517  -0.002668  -0.085114
    16  H   -0.000282  -0.000150   0.000110  -0.000007   0.000007  -0.005820
    17  C   -0.180865  -0.043750   0.097585  -0.044164   0.023387   0.545852
    18  C    0.556198   0.388547  -0.125807   0.001397  -0.038694  -0.112712
    19  H    0.668724  -0.048139  -0.173115   0.002403   0.000258   0.014540
    20  H   -0.048139   0.504201  -0.024043   0.003814  -0.004099  -0.007547
    21  N   -0.173115  -0.024043   7.375865   0.315107   0.296346  -0.021021
    22  H    0.002403   0.003814   0.315107   0.338693  -0.036379  -0.001967
    23  H    0.000258  -0.004099   0.296346  -0.036379   0.393126   0.002477
    24  O    0.014540  -0.007547  -0.021021  -0.001967   0.002477   8.062982
 Mulliken charges:
               1
     1  C   -0.346870
     2  H    0.235008
     3  H    0.249776
     4  N   -0.407520
     5  H    0.433324
     6  O   -0.606526
     7  H    0.493679
     8  C    0.585659
     9  O   -0.409611
    10  C   -0.094071
    11  O   -0.327281
    12  C   -0.310695
    13  H    0.236749
    14  H    0.241332
    15  N   -0.454358
    16  H    0.416057
    17  C    0.213563
    18  C   -0.119993
    19  H    0.166576
    20  H    0.217419
    21  N   -0.805401
    22  H    0.406625
    23  H    0.370033
    24  O   -0.383475
 Sum of Mulliken charges =   0.00000
 Mulliken charges with hydrogens summed into heavy atoms:
               1
     1  C    0.137915
     4  N    0.025805
     6  O   -0.112847
     8  C    0.585659
     9  O   -0.409611
    10  C   -0.094071
    11  O   -0.327281
    12  C    0.167386
    15  N   -0.038302
    17  C    0.213563
    18  C    0.264002
    21  N   -0.028743
    24  O   -0.383475
 Electronic spatial extent (au):  <R**2>=           3531.9512
 Charge=              0.0000 electrons
 Dipole moment (field-independent basis, Debye):
    X=             -4.8259    Y=              1.8937    Z=              5.4259  Tot=              7.5044
 Quadrupole moment (field-independent basis, Debye-Ang):
   XX=            -97.3610   YY=            -74.7950   ZZ=            -77.2429
   XY=             -9.4588   XZ=             11.2521   YZ=             -3.6653
 Traceless Quadrupole moment (field-independent basis, Debye-Ang):
   XX=            -14.2280   YY=              8.3379   ZZ=              5.8901
   XY=             -9.4588   XZ=             11.2521   YZ=             -3.6653
 Octapole moment (field-independent basis, Debye-Ang**2):
  XXX=           -164.2703  YYY=             14.1953  ZZZ=             -1.1181  XYY=             -8.5536
  XXY=             29.8314  XXZ=             59.1334  XZZ=             14.4637  YZZ=             -4.6187
  YYZ=              7.8755  XYZ=              0.0040
 Hexadecapole moment (field-independent basis, Debye-Ang**3):
 XXXX=          -3587.8534 YYYY=           -514.1214 ZZZZ=           -331.2962 XXXY=           -286.2277
 XXXZ=             61.1109 YYYX=             -6.5777 YYYZ=            -10.3698 ZZZX=             14.8394
 ZZZY=             -5.6943 XXYY=           -700.4710 XXZZ=           -703.8806 YYZZ=           -132.6606
 XXYZ=            -27.8898 YYXZ=             30.2533 ZZXY=             -0.7883
 N-N= 8.104387934715D+02 E-N=-3.256476333550D+03  KE= 6.935623490090D+02
 Calling FoFJK, ICntrl=      2127 FMM=F ISym2X=0 I1Cent= 0 IOpClX= 0 NMat=1 NMatS=1 NMatT=0.
 ***** Axes restored to original set *****
 -------------------------------------------------------------------
 Center     Atomic                   Forces (Hartrees/Bohr)
 Number     Number              X              Y              Z
 -------------------------------------------------------------------
      1        6          -0.025397454    0.011600534    0.019181488
      2        1           0.004933248    0.015588484   -0.006456224
      3        1           0.000092482   -0.010543132   -0.020240798
      4        7           0.033086565    0.027980232   -0.003539874
      5        1          -0.001766051   -0.018158681    0.001502262
      6        8           0.059496717   -0.017419782    0.013432892
      7        1          -0.013378936   -0.007877667    0.007423004
      8        6          -0.057856230   -0.032881931    0.033758941
      9        8           0.029943137    0.043697438   -0.048570241
     10        6           0.006522464   -0.051131501   -0.012634974
     11        8          -0.034014460    0.044405668    0.024648345
     12        6          -0.003021810   -0.015515594    0.011211851
     13        1          -0.010418809    0.014406180   -0.014426663
     14        1          -0.008787145    0.008138557    0.010932405
     15        7          -0.006292320   -0.027402859   -0.031510141
     16        1           0.010451821    0.012754788    0.009334892
     17        6           0.053321563   -0.049560377    0.025939331
     18        6          -0.000414238   -0.034328877    0.006385117
     19        1          -0.010414295    0.011763796   -0.005146851
     20        1           0.012369786    0.014092626   -0.005013077
     21        7           0.018315861    0.015802492    0.008305874
     22        1          -0.008197903   -0.011483773    0.004795215
     23        1          -0.003391790    0.000568553   -0.014966599
     24        8          -0.045182205    0.055504825   -0.014346176
 -------------------------------------------------------------------
 Cartesian Forces:  Max     0.059496717 RMS     0.024550409

 GradGradGradGradGradGradGradGradGradGradGradGradGradGradGradGradGradGrad
 Berny optimization.
 FormGI is forming the generalized inverse of G from B-inverse, IUseBI=4.
 Internal  Forces:  Max     0.083889244 RMS     0.018136067
 Search for a local minimum.
 Step number   1 out of a maximum of  116
 All quantities printed in internal units (Hartrees-Bohrs-Radians)
 Mixed Optimization -- RFO/linear search
 Second derivative matrix not updated -- first step.
 ITU=  0
     Eigenvalues ---    0.00237   0.00237   0.00237   0.00448   0.00448
     Eigenvalues ---    0.00501   0.00766   0.00766   0.00766   0.00766
     Eigenvalues ---    0.00766   0.01295   0.03399   0.03399   0.04248
     Eigenvalues ---    0.05269   0.05269   0.05269   0.06518   0.06518
     Eigenvalues ---    0.06518   0.09364   0.09364   0.09364   0.11287
     Eigenvalues ---    0.11287   0.12902   0.12902   0.12902   0.16000
     Eigenvalues ---    0.16000   0.16000   0.22022   0.22022   0.22022
     Eigenvalues ---    0.23464   0.23464   0.25000   0.25000   0.25000
     Eigenvalues ---    0.25000   0.25000   0.25000   0.28519   0.28519
     Eigenvalues ---    0.28519   0.35740   0.35740   0.35740   0.35740
     Eigenvalues ---    0.35740   0.37230   0.37230   0.37230   0.37230
     Eigenvalues ---    0.37230   0.37230   0.40989   0.47688   0.47688
     Eigenvalues ---    0.47688   0.47688   0.55473   0.80209   0.80209
     Eigenvalues ---    0.80209
 RFO step:  Lambda=-8.15984175D-02 EMin= 2.36824205D-03
 Linear search not attempted -- first point.
 Maximum step size (   0.300) exceeded in Quadratic search.
    -- Step size scaled by   0.703
 Iteration  1 RMS(Cart)=  0.31140402 RMS(Int)=  0.01399527
 Iteration  2 RMS(Cart)=  0.07165168 RMS(Int)=  0.00080992
 Iteration  3 RMS(Cart)=  0.00204014 RMS(Int)=  0.00050448
 Iteration  4 RMS(Cart)=  0.00000133 RMS(Int)=  0.00050447
 Iteration  5 RMS(Cart)=  0.00000000 RMS(Int)=  0.00050447
 Variable       Old X    -DE/DX   Delta X   Delta X   Delta X     New X
                                 (Linear)    (Quad)   (Total)
    R1        2.02201   0.01741   0.00000   0.02698   0.02698   2.04898
    R2        2.02201   0.02114   0.00000   0.03276   0.03276   2.05477
    R3        2.77790   0.00274   0.00000   0.00439   0.00439   2.78229
    R4        2.91018  -0.01721   0.00000  -0.03300  -0.03300   2.87718
    R5        1.88973   0.01772   0.00000   0.02232   0.02232   1.91204
    R6        2.77790  -0.02971   0.00000  -0.04759  -0.04759   2.73031
    R7        1.81414   0.01373   0.00000   0.01518   0.01518   1.82931
    R8        2.70231  -0.05306   0.00000  -0.07592  -0.07592   2.62639
    R9        2.37803  -0.07171   0.00000  -0.05707  -0.05707   2.32096
   R10        2.37803  -0.06044   0.00000  -0.04810  -0.04810   2.32993
   R11        2.91018  -0.00709   0.00000  -0.01359  -0.01359   2.89659
   R12        2.02201   0.01904   0.00000   0.02950   0.02950   2.05151
   R13        2.02201   0.01620   0.00000   0.02510   0.02510   2.04711
   R14        2.77790   0.01583   0.00000   0.02536   0.02536   2.80326
   R15        1.88973   0.01791   0.00000   0.02255   0.02255   1.91227
   R16        2.77790   0.00296   0.00000   0.00474   0.00474   2.78263
   R17        2.91018   0.00338   0.00000   0.00648   0.00648   2.91666
   R18        2.37803  -0.07227   0.00000  -0.05752  -0.05752   2.32052
   R19        2.02201   0.01375   0.00000   0.02131   0.02131   2.04332
   R20        2.02201   0.01933   0.00000   0.02995   0.02995   2.05196
   R21        2.77790  -0.00199   0.00000  -0.00319  -0.00319   2.77471
   R22        1.88973   0.01487   0.00000   0.01872   0.01872   1.90845
   R23        1.88973   0.01524   0.00000   0.01918   0.01918   1.90891
    A1        1.91063  -0.00184   0.00000  -0.00687  -0.00706   1.90357
    A2        1.91063   0.00107   0.00000   0.00518   0.00513   1.91577
    A3        1.91063   0.00187   0.00000   0.00356   0.00355   1.91419
    A4        1.91063   0.00778   0.00000   0.02698   0.02691   1.93755
    A5        1.91063  -0.00558   0.00000  -0.02191  -0.02185   1.88878
    A6        1.91063  -0.00331   0.00000  -0.00695  -0.00690   1.90373
    A7        1.91063  -0.00017   0.00000   0.00498   0.00509   1.91573
    A8        1.91063   0.01275   0.00000   0.02863   0.02862   1.93925
    A9        1.91063  -0.00691   0.00000  -0.01905  -0.01918   1.89145
   A10        1.91063  -0.01149   0.00000  -0.03343  -0.03343   1.87720
   A11        2.09440  -0.02793   0.00000  -0.05924  -0.05926   2.03514
   A12        2.09440   0.01520   0.00000   0.03223   0.03221   2.12661
   A13        2.09440   0.01274   0.00000   0.02701   0.02700   2.12140
   A14        2.09440   0.00395   0.00000   0.00838   0.00835   2.10274
   A15        2.09440  -0.01922   0.00000  -0.04076  -0.04080   2.05360
   A16        2.09440   0.01526   0.00000   0.03237   0.03233   2.12673
   A17        1.91063  -0.00267   0.00000   0.00387   0.00217   1.91281
   A18        1.91063  -0.01057   0.00000  -0.04076  -0.04057   1.87006
   A19        1.91063   0.01596   0.00000   0.04093   0.04024   1.95088
   A20        1.91063  -0.00162   0.00000  -0.01654  -0.01655   1.89408
   A21        1.91063   0.00532   0.00000   0.03533   0.03443   1.94507
   A22        1.91063  -0.00641   0.00000  -0.02284  -0.02223   1.88841
   A23        1.91063  -0.01681   0.00000  -0.01933  -0.01982   1.89081
   A24        1.91063   0.08389   0.00000   0.19122   0.19012   2.10076
   A25        1.91063  -0.02747   0.00000  -0.05477  -0.05746   1.85317
   A26        2.09440   0.02640   0.00000   0.05599   0.05522   2.14962
   A27        2.09440  -0.02029   0.00000  -0.04304  -0.04378   2.05062
   A28        2.09440  -0.00610   0.00000  -0.01295  -0.01374   2.08065
   A29        1.91063   0.00285   0.00000   0.01699   0.01660   1.92723
   A30        1.91063  -0.00388   0.00000  -0.01882  -0.01883   1.89180
   A31        1.91063   0.00246   0.00000   0.00785   0.00753   1.91816
   A32        1.91063  -0.00255   0.00000  -0.01320  -0.01301   1.89762
   A33        1.91063   0.00437   0.00000   0.02323   0.02290   1.93353
   A34        1.91063  -0.00324   0.00000  -0.01606  -0.01606   1.89457
   A35        1.91063   0.00099   0.00000   0.00319   0.00318   1.91381
   A36        1.91063   0.00239   0.00000   0.00726   0.00726   1.91789
   A37        1.91063  -0.00135   0.00000  -0.00331  -0.00333   1.90730
    D1        3.14159  -0.00072   0.00000  -0.00409  -0.00422   3.13737
    D2       -1.04720  -0.00148   0.00000  -0.00684  -0.00684  -1.05404
    D3       -1.04720   0.00245   0.00000   0.00720   0.00722  -1.03997
    D4        1.04720   0.00168   0.00000   0.00444   0.00461   1.05180
    D5        1.04720  -0.00164   0.00000  -0.00737  -0.00747   1.03973
    D6        3.14159  -0.00241   0.00000  -0.01012  -0.01009   3.13151
    D7        0.52360  -0.00105   0.00000  -0.00309  -0.00306   0.52054
    D8       -2.61799  -0.00227   0.00000  -0.01297  -0.01294  -2.63094
    D9       -1.57080   0.00347   0.00000   0.01656   0.01656  -1.55424
   D10        1.57080   0.00226   0.00000   0.00668   0.00667   1.57747
   D11        2.61799  -0.00062   0.00000   0.00119   0.00117   2.61916
   D12       -0.52360  -0.00183   0.00000  -0.00869  -0.00872  -0.53232
   D13       -1.57080  -0.00675   0.00000  -0.04616  -0.04599  -1.61679
   D14        1.57080  -0.00474   0.00000  -0.02976  -0.02974   1.54106
   D15        0.52360  -0.00338   0.00000  -0.03420  -0.03423   0.48937
   D16       -2.61799  -0.00137   0.00000  -0.01780  -0.01797  -2.63597
   D17        2.61799   0.00642   0.00000   0.04733   0.04734   2.66533
   D18       -0.52360   0.00764   0.00000   0.05720   0.05719  -0.46641
   D19       -1.57080   0.00821   0.00000   0.03773   0.03765  -1.53315
   D20        0.52360  -0.00189   0.00000  -0.00512  -0.00488   0.51872
   D21        2.61799  -0.00644   0.00000  -0.03298  -0.03328   2.58471
   D22        1.57080   0.01022   0.00000   0.05413   0.05414   1.62493
   D23       -2.61799   0.00012   0.00000   0.01128   0.01162  -2.60638
   D24       -0.52360  -0.00443   0.00000  -0.01658  -0.01679  -0.54039
   D25        3.14159   0.01381   0.00000   0.08446   0.08605  -3.05554
   D26        1.04720   0.00638   0.00000   0.04628   0.04590   1.09309
   D27        1.04720   0.00406   0.00000   0.03302   0.03334   1.08054
   D28       -1.04720  -0.00338   0.00000  -0.00516  -0.00682  -1.05402
   D29       -1.04720   0.00671   0.00000   0.04563   0.04668  -1.00052
   D30        3.14159  -0.00072   0.00000   0.00745   0.00652  -3.13507
   D31        0.52360   0.01252   0.00000   0.07490   0.07373   0.59733
   D32       -2.61799   0.00344   0.00000   0.00070   0.00028  -2.61772
   D33       -1.57080  -0.00144   0.00000   0.01502   0.01544  -1.55536
   D34        1.57080  -0.01052   0.00000  -0.05918  -0.05801   1.51279
   D35       -0.52360  -0.00162   0.00000  -0.02680  -0.02691  -0.55051
   D36        1.57080  -0.00538   0.00000  -0.04408  -0.04435   1.52644
   D37       -2.61799  -0.01022   0.00000  -0.07046  -0.07076  -2.68876
   D38        2.61799   0.00746   0.00000   0.04740   0.04775   2.66574
   D39       -1.57080   0.00371   0.00000   0.03012   0.03030  -1.54049
   D40        0.52360  -0.00113   0.00000   0.00373   0.00389   0.52749
   D41        1.04720   0.00364   0.00000   0.01790   0.01800   1.06520
   D42        3.14159   0.00406   0.00000   0.02024   0.02036  -3.12124
   D43       -1.04720  -0.00403   0.00000  -0.02195  -0.02213  -1.06932
   D44        1.04720  -0.00361   0.00000  -0.01960  -0.01977   1.02743
   D45        3.14159  -0.00159   0.00000  -0.01018  -0.01012   3.13147
   D46       -1.04720  -0.00118   0.00000  -0.00783  -0.00777  -1.05496
         Item               Value     Threshold  Converged?
 Maximum Force            0.083889     0.000450     NO 
 RMS     Force            0.018136     0.000300     NO 
 Maximum Displacement     1.764594     0.001800     NO 
 RMS     Displacement     0.374687     0.001200     NO 
 Predicted change in Energy=-4.297634D-02
 GradGradGradGradGradGradGradGradGradGradGradGradGradGradGradGradGradGrad

                          Input orientation:                          
 ---------------------------------------------------------------------
 Center     Atomic      Atomic             Coordinates (Angstroms)
 Number     Number       Type             X           Y           Z
 ---------------------------------------------------------------------
      1          6           0       -3.348442   -5.850425    1.100016
      2          1           0       -3.033514   -4.844150    0.847264
      3          1           0       -3.149225   -6.507313    0.256743
      4          7           0       -2.636122   -6.307213    2.304876
      5          1           0       -2.932958   -7.244731    2.543007
      6          8           0       -5.612754   -4.929737    0.687413
      7          1           0       -6.504371   -5.294821    0.593519
      8          6           0       -4.846447   -5.865683    1.371803
      9          8           0       -5.356147   -6.669904    2.147630
     10          6           0       -1.207413   -6.322596    2.090289
     11          8           0       -0.644681   -7.347801    1.699851
     12          6           0       -0.429540   -5.035279    2.385649
     13          1           0       -0.419069   -4.405248    1.501623
     14          1           0       -0.960910   -4.514579    3.173063
     15          7           0        0.945139   -5.320547    2.864622
     16          1           0        1.381420   -4.444053    3.120404
     17          6           0        1.906464   -6.018949    1.994930
     18          6           0        1.943538   -5.839661    0.462396
     19          1           0        0.950979   -5.642473    0.081473
     20          1           0        2.580329   -4.990833    0.232062
     21          7           0        2.514926   -7.036753   -0.167226
     22          1           0        1.939774   -7.839371    0.044716
     23          1           0        2.556773   -6.911509   -1.168710
     24          8           0        2.760358   -6.714717    2.537762
 ---------------------------------------------------------------------
                    Distance matrix (angstroms):
                    1          2          3          4          5
     1  C    0.000000
     2  H    1.084276   0.000000
     3  H    1.087335   1.768676   0.000000
     4  N    1.472326   2.103119   2.120887   0.000000
     5  H    2.049131   2.940825   2.411961   1.011809   0.000000
     6  O    2.478915   2.585605   2.956890   3.657044   3.997967
     7  H    3.244245   3.509179   3.583373   4.349372   4.511945
     8  C    1.522537   2.146018   2.129697   2.439490   2.633426
     9  O    2.408302   3.227840   2.910738   2.748601   2.521626
    10  C    2.405741   2.658112   2.677058   1.444815   2.008181
    11  O    3.148374   3.563945   3.010269   2.326954   2.440849
    12  C    3.292006   3.030486   3.754438   2.548204   3.342684
    13  H    3.291056   2.730594   3.663625   3.029523   3.932783
    14  H    3.432538   3.132674   4.155073   2.602618   3.426321
    15  N    4.672199   4.486242   4.997325   3.756628   4.341146
    16  H    5.332114   4.981855   5.743198   4.503009   5.176006
    17  C    5.333227   5.205831   5.368406   4.562264   5.022244
    18  C    5.330265   5.090208   5.140455   4.958489   5.484831
    19  H    4.423313   4.135208   4.194084   4.272317   4.869430
    20  H    6.053311   5.649356   5.926897   5.765481   6.388807
    21  N    6.114930   6.051602   5.704617   5.759932   6.088354
    22  H    5.747590   5.860805   5.264717   5.328664   5.508046
    23  H    6.414404   6.292013   5.895227   6.276713   6.635135
    24  O    6.334947   6.318684   6.337920   5.416852   5.717936
                    6          7          8          9         10
     6  O    0.000000
     7  H    0.968031   0.000000
     8  C    1.389824   1.918416   0.000000
     9  O    2.286102   2.371609   1.228199   0.000000
    10  C    4.828576   5.599500   3.737319   4.163640   0.000000
    11  O    5.617278   6.306716   4.467564   4.781000   1.232946
    12  C    5.455351   6.338979   4.607224   5.196162   1.532811
    13  H    5.283218   6.216662   4.663839   5.469984   2.155049
    14  H    5.290602   6.163829   4.490815   5.001505   2.121813
    15  N    6.920905   7.788053   6.005676   6.483906   2.497434
    16  H    7.421172   8.324340   6.623062   7.162088   3.360374
    17  C    7.709386   8.557480   6.783331   7.293324   3.130100
    18  C    7.614206   8.466475   6.850663   7.537553   3.579351
    19  H    6.630064   7.480996   5.943477   6.715985   3.025982
    20  H    8.205954   9.096968   7.564481   8.335246   4.424205
    21  N    8.439734   9.217417   7.611164   8.212608   4.411599
    22  H    8.119096   8.836261   7.190925   7.682471   4.048428
    23  H    8.608936   9.371417   7.896557   8.583168   5.013680
    24  O    8.758936   9.572429   7.742338   8.125999   4.012132
                   11         12         13         14         15
    11  O    0.000000
    12  C    2.421645   0.000000
    13  H    2.957840   1.085611   0.000000
    14  H    3.208973   1.083283   1.760470   0.000000
    15  N    2.827363   1.483420   2.134620   2.092305   0.000000
    16  H    3.815076   2.041810   2.421511   2.343982   1.011932
    17  C    2.891585   2.564602   2.873236   3.445716   1.472507
    18  C    3.241089   3.158707   2.952871   4.188003   2.652729
    19  H    2.841377   2.753861   2.329074   3.805968   2.801713
    20  H    4.255631   3.701247   3.309242   4.627816   3.116558
    21  N    3.683184   4.380976   4.279977   5.440618   3.821217
    22  H    3.108138   4.353912   4.413606   5.408767   3.909686
    23  H    4.320683   5.007172   4.718862   6.080325   4.625613
    24  O    3.563311   3.608199   4.063987   4.369445   2.312049
                   16         17         18         19         20
    16  H    0.000000
    17  C    2.005657   0.000000
    18  C    3.054293   1.543431   0.000000
    19  H    3.294934   2.171637   1.081276   0.000000
    20  H    3.174724   2.149144   1.085848   1.761276   0.000000
    21  N    4.337677   2.465983   1.468311   2.109928   2.085545
    22  H    4.615170   2.668029   2.042868   2.409445   2.925675
    23  H    5.085891   3.350848   2.045830   2.398328   2.377333
    24  O    2.719717   1.227964   2.395843   3.233716   2.884518
                   21         22         23         24
    21  N    0.000000
    22  H    1.009908   0.000000
    23  H    1.010152   1.647427   0.000000
    24  O    2.735125   2.855431   3.717272   0.000000
 Stoichiometry    C6H11N3O4
 Framework group  C1[X(C6H11N3O4)]
 Deg. of freedom    66
 Full point group                 C1      NOp   1
 Largest Abelian subgroup         C1      NOp   1
 Largest concise Abelian subgroup C1      NOp   1
                         Standard orientation:                         
 ---------------------------------------------------------------------
 Center     Atomic      Atomic             Coordinates (Angstroms)
 Number     Number       Type             X           Y           Z
 ---------------------------------------------------------------------
      1          6           0       -2.272845    0.464709    0.188942
      2          1           0       -2.027266    0.471759    1.245018
      3          1           0       -2.027805    1.433708   -0.239188
      4          7           0       -1.532684   -0.613613   -0.487167
      5          1           0       -1.764905   -0.622697   -1.471926
      6          8           0       -4.594329    0.691915    1.028053
      7          1           0       -5.458679    0.883381    0.636488
      8          6           0       -3.766683    0.229953    0.011587
      9          8           0       -4.221208   -0.329297   -0.982959
     10          6           0       -0.105964   -0.426180   -0.357437
     11          8           0        0.526309    0.181466   -1.224129
     12          6           0        0.581387   -1.025430    0.874616
     13          1           0        0.549961   -0.311882    1.692182
     14          1           0        0.014397   -1.902751    1.161556
     15          7           0        1.971672   -1.449040    0.577636
     16          1           0        2.346456   -1.908610    1.397599
     17          6           0        2.979911   -0.457972    0.165915
     18          6           0        3.006892    0.990354    0.698647
     19          1           0        2.003720    1.332379    0.912710
     20          1           0        3.584337    1.006508    1.618083
     21          7           0        3.659941    1.870331   -0.278649
     22          1           0        3.140850    1.860280   -1.144880
     23          1           0        3.694597    2.814606    0.078494
     24          8           0        3.878683   -0.839463   -0.578778
 ---------------------------------------------------------------------
 Rotational constants (GHZ):           1.9052171           0.2831076           0.2740177
 Standard basis: 6-31+G(d) (6D, 7F)
 There are   269 symmetry adapted cartesian basis functions of A   symmetry.
 There are   269 symmetry adapted basis functions of A   symmetry.
   269 basis functions,   460 primitive gaussians,   269 cartesian basis functions
    50 alpha electrons       50 beta electrons
       nuclear repulsion energy       792.4769276911 Hartrees.
 NAtoms=   24 NActive=   24 NUniq=   24 SFac= 1.00D+00 NAtFMM=   60 NAOKFM=F Big=F
 Integral buffers will be    131072 words long.
 Raffenetti 2 integral format.
 Two-electron integral symmetry is turned on.
 One-electron integrals computed using PRISM.
 NBasis=   269 RedAO= T EigKep=  3.24D-05  NBF=   269
 NBsUse=   269 1.00D-06 EigRej= -1.00D+00 NBFU=   269
 Initial guess from the checkpoint file:  "C:\Users\no83wec\Documents\BA_projektmodul\2020_09_11\triglycin\triglycin.chk"
 B after Tr=     0.000000    0.000000    0.000000
         Rot=    0.999442    0.017937   -0.001593    0.028131 Ang=   3.83 deg.
 ExpMin= 4.38D-02 ExpMax= 5.48D+03 ExpMxC= 8.25D+02 IAcc=3 IRadAn=         5 AccDes= 0.00D+00
 Harris functional with IExCor=  402 and IRadAn=       5 diagonalized for initial guess.
 HarFok:  IExCor=  402 AccDes= 0.00D+00 IRadAn=         5 IDoV= 1 UseB2=F ITyADJ=14
 ICtDFT=  3500011 ScaDFX=  1.000000  1.000000  1.000000  1.000000
 FoFCou: FMM=F IPFlag=           0 FMFlag=      100000 FMFlg1=           0
         NFxFlg=           0 DoJE=T BraDBF=F KetDBF=T FulRan=T
         wScrn=  0.000000 ICntrl=       500 IOpCl=  0 I1Cent=   200000004 NGrid=           0
         NMat0=    1 NMatS0=      1 NMatT0=    0 NMatD0=    1 NMtDS0=    0 NMtDT0=    0
 Petite list used in FoFCou.
 Requested convergence on RMS density matrix=1.00D-08 within 128 cycles.
 Requested convergence on MAX density matrix=1.00D-06.
 Requested convergence on             energy=1.00D-06.
 No special actions if energy rises.
 SCF Done:  E(RB3LYP) =  -700.399610674     A.U. after   14 cycles
            NFock= 14  Conv=0.42D-08     -V/T= 2.0097
 Calling FoFJK, ICntrl=      2127 FMM=F ISym2X=0 I1Cent= 0 IOpClX= 0 NMat=1 NMatS=1 NMatT=0.
 ***** Axes restored to original set *****
 -------------------------------------------------------------------
 Center     Atomic                   Forces (Hartrees/Bohr)
 Number     Number              X              Y              Z
 -------------------------------------------------------------------
      1        6          -0.010496412    0.009926876    0.014859315
      2        1           0.001922100    0.005808079   -0.003327699
      3        1          -0.000920334   -0.003424676   -0.009919629
      4        7           0.017053007    0.013173163   -0.004137507
      5        1          -0.001759518   -0.007658038   -0.002027826
      6        8           0.031467228   -0.015385644   -0.001455850
      7        1          -0.007984211    0.000104608    0.007262001
      8        6          -0.028055172   -0.011563236    0.018125058
      9        8           0.010927433    0.016806704   -0.022437275
     10        6           0.004886507   -0.025430905   -0.008352380
     11        8          -0.006682059    0.020549272    0.012678153
     12        6           0.008156262   -0.011326125    0.001676099
     13        1          -0.005999324    0.006152906   -0.010201560
     14        1          -0.001024129    0.005216121    0.004648008
     15        7          -0.002407560   -0.008759383   -0.022967743
     16        1           0.002768475    0.003914380    0.010083087
     17        6           0.019563861   -0.019470879    0.019525267
     18        6          -0.005078977   -0.019879194    0.005882294
     19        1          -0.012155886    0.008785270   -0.001360593
     20        1           0.004027481    0.007317685    0.000503393
     21        7           0.006467557    0.010215145    0.006991915
     22        1          -0.002848925   -0.006117657    0.000047566
     23        1          -0.000991067   -0.000830028   -0.005956281
     24        8          -0.020836336    0.021875554   -0.010137815
 -------------------------------------------------------------------
 Cartesian Forces:  Max     0.031467228 RMS     0.011991485

 GradGradGradGradGradGradGradGradGradGradGradGradGradGradGradGradGradGrad
 Berny optimization.
 Using GEDIIS/GDIIS optimizer.
 FormGI is forming the generalized inverse of G from B-inverse, IUseBI=4.
 Internal  Forces:  Max     0.031365212 RMS     0.007940278
 Search for a local minimum.
 Step number   2 out of a maximum of  116
 All quantities printed in internal units (Hartrees-Bohrs-Radians)
 Mixed Optimization -- RFO/linear search
 Update second derivatives using D2CorX and points    1    2
 DE= -3.05D-02 DEPred=-4.30D-02 R= 7.11D-01
 TightC=F SS=  1.41D+00  RLast= 3.75D-01 DXNew= 5.0454D-01 1.1248D+00
 Trust test= 7.11D-01 RLast= 3.75D-01 DXMaxT set to 5.05D-01
 ITU=  1  0
 Use linear search instead of GDIIS.
     Eigenvalues ---    0.00237   0.00237   0.00238   0.00446   0.00481
     Eigenvalues ---    0.00501   0.00751   0.00766   0.00766   0.00766
     Eigenvalues ---    0.00807   0.01289   0.02631   0.03276   0.04191
     Eigenvalues ---    0.05052   0.05295   0.05305   0.06500   0.06506
     Eigenvalues ---    0.06519   0.09289   0.09431   0.09760   0.11500
     Eigenvalues ---    0.12734   0.12826   0.12963   0.13090   0.15968
     Eigenvalues ---    0.16000   0.16029   0.21377   0.21994   0.22018
     Eigenvalues ---    0.22447   0.23754   0.24615   0.24956   0.24997
     Eigenvalues ---    0.24999   0.25000   0.28266   0.28428   0.28519
     Eigenvalues ---    0.33580   0.33819   0.35740   0.35740   0.35740
     Eigenvalues ---    0.36307   0.37150   0.37230   0.37230   0.37230
     Eigenvalues ---    0.37230   0.39569   0.46627   0.47684   0.47688
     Eigenvalues ---    0.47688   0.51806   0.55407   0.73277   0.80209
     Eigenvalues ---    0.80234
 RFO step:  Lambda=-3.99295970D-02 EMin= 2.36821232D-03
 Quartic linear search produced a step of  0.47790.
 Iteration  1 RMS(Cart)=  0.17990533 RMS(Int)=  0.01416885
 Iteration  2 RMS(Cart)=  0.01804821 RMS(Int)=  0.00094934
 Iteration  3 RMS(Cart)=  0.00040548 RMS(Int)=  0.00087241
 Iteration  4 RMS(Cart)=  0.00000043 RMS(Int)=  0.00087241
 Variable       Old X    -DE/DX   Delta X   Delta X   Delta X     New X
                                 (Linear)    (Quad)   (Total)
    R1        2.04898   0.00672   0.01289   0.02033   0.03323   2.08221
    R2        2.05477   0.00959   0.01566   0.02953   0.04518   2.09995
    R3        2.78229  -0.00032   0.00210  -0.00149   0.00061   2.78290
    R4        2.87718  -0.00589  -0.01577  -0.02333  -0.03910   2.83808
    R5        1.91204   0.00713   0.01066   0.01672   0.02739   1.93943
    R6        2.73031  -0.01239  -0.02274  -0.03944  -0.06218   2.66812
    R7        1.82931   0.00661   0.00725   0.01360   0.02085   1.85016
    R8        2.62639  -0.02610  -0.03628  -0.07338  -0.10967   2.51672
    R9        2.32096  -0.02971  -0.02727  -0.04068  -0.06795   2.25301
   R10        2.32993  -0.02415  -0.02299  -0.03281  -0.05579   2.27414
   R11        2.89659  -0.00794  -0.00649  -0.03330  -0.03980   2.85680
   R12        2.05151   0.01182   0.01410   0.03736   0.05146   2.10297
   R13        2.04711   0.00639   0.01200   0.01936   0.03136   2.07847
   R14        2.80326  -0.00924   0.01212  -0.03464  -0.02252   2.78074
   R15        1.91227   0.00713   0.01078   0.01669   0.02747   1.93974
   R16        2.78263  -0.01779   0.00226  -0.06290  -0.06064   2.72200
   R17        2.91666  -0.00638   0.00310  -0.02776  -0.02467   2.89200
   R18        2.32052  -0.03137  -0.02749  -0.04335  -0.07084   2.24968
   R19        2.04332   0.01324   0.01018   0.04291   0.05309   2.09641
   R20        2.05196   0.00798   0.01431   0.02430   0.03861   2.09057
   R21        2.77471  -0.00211  -0.00153  -0.00712  -0.00865   2.76606
   R22        1.90845   0.00649   0.00895   0.01540   0.02435   1.93280
   R23        1.90891   0.00576   0.00917   0.01337   0.02254   1.93145
    A1        1.90357  -0.00123  -0.00337  -0.01916  -0.02327   1.88030
    A2        1.91577  -0.00001   0.00245   0.00810   0.01038   1.92614
    A3        1.91419   0.00036   0.00170   0.00243   0.00390   1.91809
    A4        1.93755   0.00299   0.01286   0.03150   0.04440   1.98195
    A5        1.88878  -0.00342  -0.01044  -0.03392  -0.04447   1.84431
    A6        1.90373   0.00125  -0.00330   0.01037   0.00715   1.91088
    A7        1.91573  -0.00127   0.00243   0.00488   0.00757   1.92330
    A8        1.93925   0.01028   0.01368   0.05310   0.06658   2.00583
    A9        1.89145  -0.00426  -0.00917  -0.02297  -0.03288   1.85857
   A10        1.87720  -0.00210  -0.01598  -0.01585  -0.03183   1.84537
   A11        2.03514  -0.01804  -0.02832  -0.08458  -0.11327   1.92186
   A12        2.12661   0.01009   0.01539   0.04718   0.06219   2.18880
   A13        2.12140   0.00794   0.01290   0.03702   0.04956   2.17095
   A14        2.10274   0.00913   0.00399   0.04348   0.04725   2.14999
   A15        2.05360  -0.00866  -0.01950  -0.04018  -0.05988   1.99372
   A16        2.12673  -0.00047   0.01545  -0.00370   0.01156   2.13828
   A17        1.91281  -0.00253   0.00104  -0.02411  -0.02395   1.88886
   A18        1.87006   0.00550  -0.01939   0.02856   0.00879   1.87885
   A19        1.95088  -0.00797   0.01923  -0.04161  -0.02288   1.92799
   A20        1.89408  -0.00212  -0.00791  -0.01961  -0.02743   1.86665
   A21        1.94507   0.00778   0.01646   0.06905   0.08532   2.03039
   A22        1.88841  -0.00059  -0.01062  -0.01329  -0.02362   1.86478
   A23        1.89081   0.00146  -0.00947   0.02529   0.01303   1.90384
   A24        2.10076  -0.00906   0.09086  -0.04315   0.04547   2.14622
   A25        1.85317   0.00622  -0.02746   0.06169   0.03079   1.88395
   A26        2.14962  -0.01787   0.02639  -0.08978  -0.06545   2.08417
   A27        2.05062   0.00429  -0.02092   0.02088  -0.00187   2.04875
   A28        2.08065   0.01354  -0.00657   0.06431   0.05537   2.13602
   A29        1.92723  -0.00389   0.00793  -0.01809  -0.01338   1.91385
   A30        1.89180  -0.00286  -0.00900  -0.04083  -0.05015   1.84165
   A31        1.91816   0.00340   0.00360   0.02392   0.02604   1.94420
   A32        1.89762  -0.00118  -0.00622  -0.02582  -0.03255   1.86507
   A33        1.93353   0.00529   0.01094   0.07037   0.08036   2.01389
   A34        1.89457  -0.00094  -0.00767  -0.01254  -0.01961   1.87496
   A35        1.91381   0.00243   0.00152   0.01649   0.01797   1.93178
   A36        1.91789   0.00084   0.00347   0.00552   0.00894   1.92683
   A37        1.90730  -0.00190  -0.00159  -0.01451  -0.01619   1.89112
    D1        3.13737  -0.00039  -0.00202  -0.01563  -0.01808   3.11929
    D2       -1.05404   0.00002  -0.00327  -0.00732  -0.01034  -1.06437
    D3       -1.03997   0.00000   0.00345  -0.01391  -0.01069  -1.05066
    D4        1.05180   0.00041   0.00220  -0.00560  -0.00294   1.04887
    D5        1.03973  -0.00160  -0.00357  -0.02994  -0.03387   1.00586
    D6        3.13151  -0.00119  -0.00482  -0.02163  -0.02612   3.10538
    D7        0.52054  -0.00075  -0.00146   0.00556   0.00434   0.52488
    D8       -2.63094  -0.00187  -0.00618  -0.03786  -0.04391  -2.67484
    D9       -1.55424   0.00254   0.00791   0.04729   0.05498  -1.49926
   D10        1.57747   0.00142   0.00319   0.00387   0.00673   1.58420
   D11        2.61916   0.00023   0.00056   0.02334   0.02403   2.64319
   D12       -0.53232  -0.00089  -0.00417  -0.02008  -0.02422  -0.55654
   D13       -1.61679  -0.00565  -0.02198  -0.18100  -0.20278  -1.81956
   D14        1.54106  -0.00520  -0.01421  -0.15393  -0.16753   1.37353
   D15        0.48937  -0.00364  -0.01636  -0.15715  -0.17411   0.31526
   D16       -2.63597  -0.00319  -0.00859  -0.13007  -0.13886  -2.77483
   D17        2.66533   0.00682   0.02262   0.21009   0.23289   2.89823
   D18       -0.46641   0.00793   0.02733   0.25330   0.28046  -0.18595
   D19       -1.53315   0.00116   0.01799   0.02216   0.04013  -1.49302
   D20        0.51872   0.00039  -0.00233   0.00206   0.00009   0.51881
   D21        2.58471  -0.00143  -0.01591  -0.01996  -0.03580   2.54891
   D22        1.62493   0.00153   0.02587   0.04918   0.07475   1.69969
   D23       -2.60638   0.00075   0.00555   0.02907   0.03471  -2.57167
   D24       -0.54039  -0.00106  -0.00802   0.00705  -0.00118  -0.54157
   D25       -3.05554  -0.00057   0.04112   0.05075   0.09266  -2.96288
   D26        1.09309  -0.00361   0.02193  -0.02477  -0.00336   1.08973
   D27        1.08054   0.00283   0.01593   0.06186   0.07801   1.15854
   D28       -1.05402  -0.00021  -0.00326  -0.01366  -0.01801  -1.07203
   D29       -1.00052   0.00116   0.02231   0.05320   0.07647  -0.92405
   D30       -3.13507  -0.00188   0.00312  -0.02232  -0.01955   3.12857
   D31        0.59733  -0.00433   0.03524  -0.06941  -0.03536   0.56197
   D32       -2.61772  -0.00431   0.00013  -0.13986  -0.13811  -2.75583
   D33       -1.55536  -0.00524   0.00738  -0.12752  -0.12175  -1.67711
   D34        1.51279  -0.00522  -0.02772  -0.19797  -0.22451   1.28828
   D35       -0.55051   0.00342  -0.01286  -0.00396  -0.01832  -0.56883
   D36        1.52644  -0.00205  -0.02120  -0.07093  -0.09233   1.43412
   D37       -2.68876  -0.00293  -0.03382  -0.09653  -0.13099  -2.81975
   D38        2.66574   0.00379   0.02282   0.06952   0.09241   2.75815
   D39       -1.54049  -0.00168   0.01448   0.00256   0.01840  -1.52209
   D40        0.52749  -0.00255   0.00186  -0.02304  -0.02027   0.50722
   D41        1.06520   0.00075   0.00860   0.01560   0.02535   1.09055
   D42       -3.12124   0.00046   0.00973   0.01147   0.02239  -3.09885
   D43       -1.06932  -0.00018  -0.01057  -0.02482  -0.03679  -1.10612
   D44        1.02743  -0.00047  -0.00945  -0.02895  -0.03976   0.98767
   D45        3.13147  -0.00130  -0.00484  -0.02744  -0.03209   3.09938
   D46       -1.05496  -0.00160  -0.00371  -0.03157  -0.03505  -1.09001
         Item               Value     Threshold  Converged?
 Maximum Force            0.031365     0.000450     NO 
 RMS     Force            0.007940     0.000300     NO 
 Maximum Displacement     0.675962     0.001800     NO 
 RMS     Displacement     0.183577     0.001200     NO 
 Predicted change in Energy=-1.947821D-02
 GradGradGradGradGradGradGradGradGradGradGradGradGradGradGradGradGradGrad

                          Input orientation:                          
 ---------------------------------------------------------------------
 Center     Atomic      Atomic             Coordinates (Angstroms)
 Number     Number       Type             X           Y           Z
 ---------------------------------------------------------------------
      1          6           0       -3.384517   -5.783644    1.118859
      2          1           0       -3.086335   -4.735214    0.957693
      3          1           0       -3.278476   -6.318380    0.150521
      4          7           0       -2.594432   -6.379141    2.209655
      5          1           0       -2.888806   -7.348850    2.371854
      6          8           0       -5.500310   -4.850120    0.880399
[...]
 38,0.00019099,-0.00012740,0.00006404,-0.00001672,0.00001399,0.00000246
 ,-0.00023321,0.00009228,-0.00014571,0.00010524,-0.00005974,0.00004848,
 -0.00268345,0.00230970,-0.00284514,0.00154532,-0.00081070,0.00156169,-
 0.00160686,-0.00375593,0.00333685,0.00295882,0.00010344,0.00183923,-0.
 00028931,0.00038171,0.00054804,0.01095640,-0.01301311,-0.00393725,-0.0
 1218980,0.01746663,-0.00000628,0.00013720,-0.00005488,-0.00001870,-0.0
 0003291,0.00002769,-0.00002053,-0.00003354,-0.00000489,0.00062325,0.00
 025327,-0.00014832,0.00005723,-0.00002308,0.00003676,0.00011976,-0.000
 04955,0.00003107,-0.00001506,0.00000568,0.00000143,-0.00022919,-0.0000
 0002,-0.00003257,0.00013518,0.00002812,0.00001313,-0.00011103,-0.00036
 119,0.00037442,0.00050126,0.00038668,0.00001749,0.00122429,0.00181056,
 -0.00143725,-0.00051796,-0.00008791,0.00145789,0.00009297,0.00001282,0
 .00090433,-0.06479564,-0.02196009,-0.42700327,0.06519982,0.02153040,0.
 44454584,-0.00011450,0.00150975,-0.00046751,-0.00021327,-0.00018546,0.
 00020874,-0.00008290,-0.00033003,-0.00014935,0.00455724,0.00354941,0.0
 0035289,0.00041037,-0.00067083,0.00003871,0.00156206,-0.00067370,0.000
 56812,-0.00020369,0.00006480,-0.00009852,-0.00292922,0.00001546,-0.000
 72320,0.00162795,0.00035554,0.00034574,-0.00333272,-0.00596026,0.00186
 115,0.00264762,0.00487585,-0.00036415,-0.03277001,0.01624219,0.0040307
 7,0.00259911,-0.00043226,0.00130964,0.00111084,-0.00126083,-0.00077009
 ,-0.19110151,0.04661155,0.06477641,0.01369360,0.00110438,-0.00218755,0
 .83747395,0.00016125,-0.00051125,0.00034495,0.00016314,0.00003250,-0.0
 0008755,0.00010676,0.00009307,0.00015162,-0.00099850,-0.00357290,0.000
 18276,-0.00061616,0.00028447,-0.00021616,-0.00052167,0.00021603,-0.000
 21642,0.00007466,-0.00001940,0.00004777,0.00109784,-0.00001497,0.00031
 616,-0.00067213,-0.00018179,-0.00015536,-0.00630091,0.00752923,-0.0015
 0407,0.00108578,-0.00366919,-0.00064451,0.00606376,-0.01340263,0.01010
 281,-0.00078170,0.00058704,-0.00161454,0.00069861,0.00039090,0.0004718
 9,0.06976643,-0.08073940,-0.06913036,-0.00057302,-0.00125131,-0.001878
 40,-0.15525079,0.28152230,-0.00019261,-0.00055027,0.00063003,0.0002366
 1,-0.00003052,-0.00021340,-0.00004055,0.00025621,0.00012817,-0.0022152
 7,-0.00239165,-0.00048975,-0.00048485,0.00024262,0.00009943,-0.0006031
 8,0.00025401,-0.00030772,0.00004158,-0.00000565,0.00008664,0.00118289,
 -0.00005330,0.00027717,-0.00070708,-0.00019262,-0.00020337,-0.00147768
 ,0.00451066,-0.00096008,-0.00035405,-0.00316721,-0.00118872,0.00078857
 ,0.00746017,0.01839690,-0.00233634,0.00154799,-0.00136407,-0.00651703,
 0.00114177,-0.00097151,0.06424399,-0.05627978,-0.20371581,0.03203313,-
 0.02364235,-0.02385892,0.16074795,0.05650712,0.61786717,-0.00010818,0.
 00035102,-0.00002822,0.00003192,-0.00007018,-0.00000065,-0.00002489,-0
 .00001097,0.00002107,0.00074241,-0.00006524,0.00006390,-0.00013979,-0.
 00007610,0.00010211,0.00030483,-0.00015227,0.00010678,-0.00004659,0.00
 001890,-0.00001641,-0.00054017,0.00004477,-0.00013264,0.00027595,0.000
 01443,0.00004952,-0.00148248,0.00073639,0.00025246,0.00083601,-0.00057
 361,-0.00073871,0.00015066,0.00078033,0.00158508,-0.00074319,0.0003396
 7,0.00073075,0.00005197,-0.00021421,-0.00012130,0.00753223,0.00514330,
 0.02430249,-0.00339934,0.00442011,0.00271316,-0.08320856,-0.00326028,-
 0.00047212,0.57163844,-0.00013048,0.00014821,-0.00007180,0.00005058,-0
 .00003138,-0.00003131,0.00003716,0.00002853,0.00006277,-0.00004470,-0.
 00034817,0.00001198,-0.00008592,0.00003722,0.00007339,-0.00001603,-0.0
 0006011,0.00001289,0.00000862,0.00000560,0.00000488,0.00014376,0.00017
 589,0.00000445,-0.00009617,-0.00015806,-0.00000944,-0.00034567,0.00152
 498,0.00007941,0.00015993,-0.00104208,-0.00018938,0.00063990,-0.000965
 28,-0.00015059,0.00145398,-0.00010005,-0.00112493,-0.00044562,-0.00013
 230,0.00001836,0.00219430,0.00605351,-0.01543765,0.00274892,0.00296401
 ,-0.00165814,-0.00747056,-0.09611989,-0.01219474,0.01385401,0.57470806
 ,0.00005092,-0.00011385,0.00002281,-0.00000128,0.00001617,-0.00000576,
 -0.00001155,0.00000174,-0.00001538,-0.00033227,-0.00015522,0.00009571,
 -0.00000349,0.00004192,-0.00004733,-0.00010903,0.00006323,-0.00004498,
 0.00001304,-0.00000630,0.00000867,0.00018827,-0.00004269,0.00006051,-0
 .00009787,0.00001151,-0.00002545,0.00035850,0.00063066,0.00002396,-0.0
 0000796,-0.00023391,-0.00048506,0.00130461,-0.00120971,-0.00140261,-0.
 00023215,-0.00018149,-0.00026500,-0.00015155,0.00015776,-0.00038691,0.
 00495847,-0.00739791,-0.01312359,-0.00097969,-0.00053410,0.00295957,-0
 .00696036,-0.01096681,-0.14397841,0.00205373,-0.03831036,0.42712004,-0
 .00002512,-0.00001447,0.00000635,0.00000154,0.00000621,0.00000428,-0.0
 0001039,0.00001723,0.00000837,-0.00014322,0.00006627,-0.00024182,0.000
 00954,-0.00000806,0.00003453,-0.00002496,0.00001825,-0.00001245,0.0000
 0308,-0.00000250,0.00000123,0.00002757,-0.00001111,0.00000793,-0.00001
 112,0.00000896,-0.00000546,0.00013537,-0.00051686,0.00084623,-0.000781
 92,0.00029623,0.00056433,0.00012423,0.00069347,-0.00005509,-0.00020533
 ,0.00046562,0.00065353,0.00002867,-0.00000033,0.00011119,-0.00019635,0
 .00041018,0.00017007,0.00009679,-0.00006419,-0.00032676,-0.00556409,-0
 .00440749,-0.00321761,-0.19867740,-0.12483801,-0.01599221,0.22763987,0
 .00002528,-0.00007719,-0.00005784,-0.00000541,0.00000442,0.00001783,0.
 00005238,-0.00005056,0.00001264,0.00006271,-0.00001386,0.00008328,0.00
 003708,0.00003798,-0.00002992,-0.00009879,0.00003952,-0.00002335,0.000
 01664,-0.00000680,-0.00000038,0.00021009,0.00001635,0.00004683,-0.0001
 0315,-0.00003654,-0.00001142,0.00049733,0.00062459,-0.00038435,-0.0002
 3127,-0.00031603,0.00041880,-0.00081232,0.00021602,-0.00069170,0.00011
 293,-0.00096327,0.00022850,0.00010067,-0.00002817,0.00032192,0.0007641
 2,-0.00018082,-0.00118136,0.00012057,0.00005616,-0.00006382,-0.0042043
 8,-0.00217239,0.00165395,-0.13090627,-0.15591856,-0.01481223,0.1355705
 0,0.16366082,0.00006369,-0.00021028,0.00006450,-0.00003132,0.00004960,
 -0.00000907,-0.00004336,0.00007181,-0.00003724,-0.00069722,0.00025061,
 -0.00029623,0.00008754,0.00005162,0.00003995,-0.00009755,0.00005144,-0
 .00004317,0.00000255,-0.00000069,0.00000933,0.00013138,-0.00001160,0.0
 0004260,-0.00006654,0.00001878,-0.00003443,0.00234227,-0.00173288,0.00
 004180,-0.00097184,0.00113145,0.00033319,0.00006941,-0.00072674,-0.000
 26593,0.00034693,-0.00025747,-0.00025520,0.00019540,0.00009531,-0.0000
 1896,0.00161931,0.00071606,-0.00087590,0.00019903,0.00086033,-0.000223
 42,-0.02691116,-0.02220613,0.00152149,-0.02030195,-0.01895763,-0.04960
 284,0.01262410,0.01893257,0.05502615,0.00001594,-0.00003575,0.00004724
 ,-0.00000213,0.00001245,-0.00000852,-0.00003499,0.00003147,-0.00001670
 ,-0.00014980,0.00008262,-0.00008077,0.00001062,-0.00000205,0.00001568,
 0.00001867,-0.00000657,0.00000069,-0.00000621,0.00000342,0.00000165,-0
 .00005637,-0.00000486,-0.00001142,0.00002489,0.00001922,-0.00000066,0.
 00030012,-0.00080916,-0.00001332,-0.00043971,0.00041294,0.00022096,0.0
 0042457,-0.00023492,0.00102904,-0.00053986,0.00030063,0.00042961,-0.00
 000071,-0.00001701,0.00004044,-0.00085962,0.00020949,0.00043980,-0.000
 06896,-0.00020356,-0.00015766,-0.00169773,0.00621902,-0.00714758,-0.05
 912880,0.04599072,-0.02645526,0.00759505,-0.02087814,0.01287738,0.0700
 8903,0.00002547,-0.00005322,0.00008485,-0.00002174,0.00001749,-0.00000
 803,-0.00004844,0.00003884,-0.00003359,-0.00016663,0.00015686,-0.00014
 760,0.00002204,-0.00002547,-0.00000846,0.00003785,0.00000408,-0.000005
 38,-0.00001322,0.00000307,0.00000386,-0.00012998,-0.00005627,-0.000019
 98,0.00006934,0.00006803,-0.00000100,0.00025650,-0.00109442,0.00039462
 ,-0.00034886,0.00067931,0.00016714,0.00046895,-0.00024569,-0.00024716,
 -0.00019950,0.00047671,-0.00028729,0.00007577,0.00015491,-0.00045573,0
 .00039330,-0.00030465,0.00053184,-0.00027285,-0.00009957,0.00036513,-0
 .00055821,0.00694794,-0.00278880,0.04827620,-0.22502427,0.10162406,0.0
 0503227,-0.01703443,0.01028150,-0.06175848,0.24950736,-0.00001600,0.00
 001604,-0.00002962,0.00001062,-0.00000155,-0.00000776,0.00002795,-0.00
 000093,0.00002828,0.00008384,-0.00002231,0.00000702,0.00001146,0.00000
 057,-0.00000330,-0.00001545,-0.00000240,-0.00000494,0.00000329,-0.0000
 0053,0.00000232,0.00005379,0.00002444,0.00002004,-0.00002865,-0.000031
 52,-0.00000234,0.00005543,0.00048506,0.00027096,0.00016698,-0.00035344
 ,-0.00005250,-0.00014863,0.00038766,-0.00078682,0.00119896,-0.00013449
 ,-0.00012401,0.00015070,-0.00006461,0.00014367,0.00032841,-0.00333445,
 -0.00044540,-0.00035332,-0.00060038,0.00018156,-0.00752398,0.03118272,
 -0.01262790,-0.02911484,0.10920040,-0.10909629,0.00123702,-0.00290990,
 0.00200811,0.02698862,-0.10897878,0.11673814,0.00006943,-0.00024613,-0
 .00001635,-0.00000561,0.00004063,0.00000247,0.00003156,0.00000001,-0.0
 0000110,-0.00049214,0.00000407,0.00001704,0.00009362,0.00006737,-0.000
 04804,-0.00024987,0.00012217,-0.00007653,0.00004184,-0.00001713,0.0000
 0691,0.00045705,-0.00003441,0.00011212,-0.00023017,-0.00002368,-0.0000
 3773,0.00121162,-0.00007597,-0.00016551,-0.00053975,0.00009682,0.00041
 200,-0.00002954,-0.00000364,-0.00080713,0.00001934,-0.00031965,0.00034
 054,0.00004739,-0.00001625,0.00020711,0.00226313,-0.00027168,0.0007110
 0,-0.00037308,0.00032366,0.00024743,-0.00754280,0.00579091,0.00836621,
 -0.17886875,0.04513674,0.08441548,-0.02705684,0.01505205,0.01721978,-0
 .00997545,0.00755689,0.00584249,0.58669566,0.00006458,-0.00003076,0.00
 001456,-0.00004025,0.00001450,0.00002360,-0.00003024,-0.00002165,-0.00
 004605,0.00010341,0.00033093,0.00002386,0.00005866,-0.00004645,-0.0000
 4157,0.00006093,0.00002004,0.00001410,-0.00001191,-0.00000421,-0.00000
 958,-0.00019264,-0.00011973,-0.00003512,0.00011786,0.00011980,0.000023
 07,0.00015631,-0.00125171,-0.00002921,-0.00018371,0.00086026,0.0002925
 8,-0.00072144,0.00003441,-0.00019202,-0.00050225,-0.00000145,0.0002177
 1,0.00019116,0.00007371,-0.00005032,-0.00058482,0.00051420,-0.00292962
 ,0.00077480,-0.00020886,-0.00039837,0.01171134,-0.00346806,-0.01017684
 ,0.03717356,-0.12486375,-0.03198262,-0.01557233,0.01147783,0.01116852,
 0.02974378,-0.01470096,-0.01920628,0.03101004,0.64447612,-0.00002923,0
 .00033203,-0.00014494,-0.00003559,-0.00003706,0.00004103,-0.00000528,-
 0.00007953,-0.00001315,0.00101298,0.00042477,0.00022595,0.00002304,-0.
 00011831,-0.00002682,0.00029848,-0.00013611,0.00014025,-0.00002909,0.0
 0000766,-0.00003975,-0.00054888,0.00001783,-0.00017166,0.00029843,0.00
 005470,0.00009701,-0.00108874,-0.00062054,-0.00004581,0.00074569,0.000
 33149,0.00011321,-0.00247338,0.00100159,-0.00057683,0.00041564,-0.0000
 6988,0.00039185,0.00038252,-0.00006999,0.00018379,-0.00118044,-0.00248
 075,-0.00929143,0.00198038,-0.00123670,-0.00101059,0.02675299,-0.01800
 505,-0.02583739,0.03232002,-0.01020592,-0.08930831,0.00330681,-0.00013
 223,-0.00037446,-0.00755047,0.00149717,0.00809244,-0.00910957,-0.07606
 653,0.23769683,0.00001517,-0.00002274,-0.00000072,-0.00000595,0.000004
 18,0.00000503,0.00000276,-0.00000665,-0.00000466,-0.00000134,0.0000505
 8,-0.00000216,0.00001649,0.00000259,-0.00000612,-0.00000603,0.00000753
 ,-0.00000422,-0.00000080,-0.00000044,0.00000048,0.00000498,-0.00001116
 ,0.00000422,0.00000075,0.00000907,-0.00000093,0.00017309,-0.00012391,-
 0.00003031,-0.00005930,0.00009971,0.00008880,-0.00031721,0.00009573,-0
 .00011850,-0.00000783,-0.00011424,0.00013751,0.00003154,-0.00000704,0.
 00007169,0.00025237,-0.00019217,-0.00061545,0.00016381,0.00000183,-0.0
 0002291,-0.00070056,-0.00041156,-0.00142128,-0.02768601,-0.01851894,-0
 .00533620,-0.00391815,0.00405359,0.00266007,0.00022078,0.00002576,-0.0
 0038285,-0.29232120,-0.16578685,-0.02843214,0.31461133,-0.00001430,0.0
 0005038,-0.00002035,0.00000199,-0.00000624,-0.00000147,-0.00000427,-0.
 00000147,0.00000277,0.00010461,0.00000129,0.00001682,-0.00000838,-0.00
 001355,0.00000208,0.00003737,-0.00002421,0.00001907,-0.00000266,0.0000
 0222,-0.00000365,-0.00005988,0.00002243,-0.00002013,0.00002786,-0.0000
 0856,0.00001109,-0.00022117,0.00002907,0.00002941,0.00011651,-0.000040
 66,-0.00005810,0.00002807,0.00000599,0.00005353,0.00005142,0.00007592,
 -0.00005078,0.00000402,0.00000060,-0.00004799,0.00014381,-0.00024078,-
 0.00015783,0.00005125,0.00002216,-0.00002211,0.00034284,0.00059775,-0.
 00082961,0.01657768,0.01152854,0.00046892,0.00335946,-0.00014383,-0.00
 213391,-0.00002560,0.00033474,0.00063558,-0.16079475,-0.18233064,-0.01
 980989,0.17384394,0.19296676,0.00001750,-0.00011550,0.00004630,0.00001
 053,0.00001297,-0.00001041,0.00000225,0.00001861,0.00000150,-0.0003138
 1,-0.00012645,-0.00005105,-0.00000351,0.00002956,-0.00000695,-0.000113
 10,0.00006480,-0.00005090,0.00001409,-0.00000704,0.00001224,0.00019286
 ,-0.00004400,0.00006061,-0.00010025,0.00000540,-0.00002773,0.00020459,
 0.00022485,0.00001634,-0.00016806,-0.00006979,-0.00007586,0.00037226,-
 0.00008418,0.00038751,-0.00010120,0.00001308,-0.00007450,-0.00018197,0
 .00002661,-0.00001238,-0.00164817,0.00084312,0.00080988,-0.00010946,-0
 .00013392,0.00004781,0.00599608,0.00075502,0.00093781,0.02132521,0.009
 95271,-0.00363046,0.00218990,-0.00151160,-0.00102892,-0.00105156,-0.00
 017807,0.00037845,-0.07384985,-0.05337998,-0.02716828,0.03542180,0.030
 82288,0.02946842,-0.00003516,0.00005824,-0.00001102,0.00001779,-0.0000
 1675,-0.00000528,0.00001892,-0.00000503,0.00002288,0.00013240,-0.00014
 296,0.00002951,-0.00004158,0.00001343,0.00002161,0.00002181,-0.0000321
 5,0.00000784,-0.00000426,0.00000510,0.00000264,0.00000210,0.00005861,-
 0.00000329,-0.00000728,-0.00005009,-0.00000303,-0.00020595,0.00069129,
 -0.00011602,0.00022092,-0.00051982,-0.00010007,-0.00002933,0.00010477,
 0.00000856,0.00014266,-0.00008753,0.00004337,-0.00005305,-0.00004368,0
 .00008181,-0.00032843,-0.00004177,-0.00005357,0.00003070,-0.00002593,-
 0.00000786,0.00038514,-0.00020054,-0.00048717,-0.00833799,0.03104314,-
 0.01464340,0.00036272,-0.00005580,-0.00078809,-0.00521431,0.00303285,0
 .00362358,-0.07844544,0.07297335,-0.02417358,0.00761575,-0.03414380,0.
 01482689,0.08354983,-0.00000743,-0.00003638,0.00002494,0.00000833,0.00
 000185,-0.00000757,0.00000406,0.00001102,0.00000745,-0.00014216,-0.000
 11540,-0.00003594,-0.00001666,0.00002753,0.00001018,-0.00003983,0.0000
 0517,-0.00001642,0.00000399,0.00000148,0.00000559,0.00009277,0.0000295
 8,0.00001777,-0.00005474,-0.00003299,-0.00001419,0.00011788,0.00025765
 ,-0.00003948,-0.00008487,-0.00018142,-0.00002832,0.00029157,-0.0002374
 8,0.00019629,-0.00006582,0.00001711,-0.00007827,-0.00007155,0.00001722
 ,-0.00002713,-0.00077869,0.00064666,0.00060196,-0.00004719,0.00011466,
 -0.00000236,0.00183953,-0.00085286,0.00147177,0.00474361,-0.01393877,0
 .00706655,-0.00038801,0.00104848,-0.00011240,0.00222436,0.00131107,-0.
 00179140,0.05972481,-0.33077928,0.12754108,0.00746162,-0.02188424,0.01
 285634,-0.07277021,0.36318552,-0.00000733,-0.00007594,0.00003511,0.000
 00789,0.00000915,-0.00001046,0.00000064,0.00002412,0.00000500,-0.00029
 375,-0.00009466,-0.00010421,-0.00000593,0.00003843,0.00002151,-0.00007
 192,0.00001724,-0.00003075,0.00000726,0.00000134,0.00001053,0.00015077
 ,0.00003788,0.00003550,-0.00008547,-0.00004247,-0.00002799,0.00029306,
 0.00011986,0.00009316,-0.00025082,-0.00002166,-0.00005912,0.00021971,-
 0.00020787,0.00015861,-0.00011806,0.00000886,-0.00000831,-0.00010256,0
 .00001816,-0.00001042,-0.00086304,0.00101534,0.00019821,0.00006256,0.0
 0006326,-0.00008994,0.00354843,-0.00367382,0.00142211,0.00840855,-0.02
 291070,0.00174166,-0.00070538,0.00059249,0.00056798,0.00154797,-0.0010
 8831,-0.00063173,-0.03010968,0.18098726,-0.09317304,-0.00162904,-0.008
 38246,-0.00085119,0.02138334,-0.14805088,0.09067636,0.00000961,-0.0009
 6268,0.00030338,0.00020559,0.00005949,-0.00016883,0.00009172,0.0001616
 7,0.00016087,-0.00256215,-0.00271432,-0.00000479,-0.00028621,0.0004084
 7,-0.00017909,-0.00109824,0.00048354,-0.00038296,0.00015473,-0.0000539
 5,0.00005853,0.00212072,-0.00006369,0.00048678,-0.00118635,-0.00027780
 ,-0.00021099,0.00084054,0.00751186,-0.00161466,-0.00009910,-0.00393740
 ,0.00074902,0.00552463,0.00071873,0.00811612,-0.00119057,0.00017873,-0
 .00074139,-0.00354813,0.00043953,-0.00085969,-0.08983632,0.04385115,-0
 .00295701,-0.00117830,-0.00490951,-0.00249723,-0.53660630,0.08276659,-
 0.23996653,-0.01917225,0.00853034,-0.02202874,0.00059045,0.00061958,-0
 .00052983,-0.00052501,-0.00175531,-0.00219943,0.00520001,-0.00051330,0
 .00711942,0.00191556,0.00058399,-0.00293301,0.00020207,-0.00204535,-0.
 00138721,0.64043329,-0.00005224,0.00020870,-0.00013301,-0.00008263,0.0
 0000054,0.00004734,-0.00004049,-0.00003722,-0.00006779,0.00043570,0.00
 156158,-0.00018106,0.00025406,-0.00014178,0.00009196,0.00023233,-0.000
 07485,0.00008828,-0.00003497,0.00000419,-0.00001928,-0.00050719,-0.000
 03747,-0.00011551,0.00031643,0.00011601,0.00005931,0.00208690,-0.00375
 242,0.00107027,-0.00054487,0.00180361,-0.00024901,-0.00023638,0.006313
 85,-0.00499932,0.00008881,-0.00010817,0.00034867,0.00046842,-0.0000634
 6,-0.00005436,0.04184558,0.00407649,0.00563267,-0.00195558,-0.00371985
 ,0.00204165,0.08877468,-0.09222519,0.03725707,0.00285516,0.02152813,-0
 .00413534,-0.00012129,-0.00023969,0.00267012,-0.00127401,-0.00106143,-
 0.00449947,-0.00312288,-0.00009430,-0.00213982,-0.00046043,-0.00094367
 ,0.00002458,0.00015528,0.00138384,0.00161536,-0.12908038,0.06550257,0.
 00011639,-0.00013985,-0.00015822,-0.00002112,0.00004130,0.00002312,0.0
 0003938,-0.00004134,-0.00000325,-0.00006531,-0.00038066,0.00030004,0.0
 0002027,0.00006656,-0.00016143,-0.00015582,0.00007511,0.00000156,0.000
 04028,-0.00001921,-0.00002553,0.00029714,0.00000176,0.00004250,-0.0001
 5954,-0.00001810,0.00002209,-0.00014452,0.00110118,-0.00058297,0.00009
 489,-0.00040793,0.00083962,0.00208105,-0.00465903,-0.00004564,0.000835
 48,-0.00042798,0.00033087,0.00075799,-0.00004666,0.00020375,0.01262058
 ,0.00411427,0.03254664,-0.00445954,0.00256747,0.00326506,-0.22438176,0
 .03023636,-0.22564988,-0.04310800,0.00183135,-0.02061456,-0.00120912,-
 0.00049871,-0.00658934,-0.00114513,-0.00070199,-0.00405836,-0.00367908
 ,0.00177885,0.00020011,-0.00038210,-0.00052386,0.00082177,0.00034034,0
 .00040444,0.00003141,0.26166726,-0.03435334,0.21926063||0.00000042,-0.
 00000186,0.00000470,0.00000033,0.00000062,-0.00000094,-0.00000113,-0.0
 0000114,-0.00000120,-0.00000378,-0.00000067,0.00000417,0.00000107,0.00
 000059,-0.00000255,-0.00000269,0.00000366,0.00000186,0.00000019,-0.000
 00094,-0.00000182,0.00000551,-0.00000200,-0.00000514,-0.00000126,-0.00
 000094,0.00000283,-0.00000266,-0.00000951,-0.00000400,0.00000061,0.000
 00471,-0.00000198,0.00000535,0.00000778,0.00000735,0.00000205,-0.00000
 072,-0.00000108,0.00000028,-0.00000015,-0.00000167,-0.00001320,0.00001
 035,-0.00000837,0.00000439,-0.00000554,0.00000033,0.00000058,-0.000015
 27,-0.00000426,0.00000522,-0.00000006,0.00001087,-0.00000178,-0.000002
 22,-0.00000087,-0.00000040,0.00000305,-0.00000020,0.00000109,0.0000057
 0,-0.00000016,-0.00000237,-0.00000161,-0.00000035,-0.00000274,0.000000
 75,0.00000169,0.00000491,0.00000544,0.00000080|||@


 BUT 'GLORY' DOESN'T MEAN 'A NICE KNOCK DOWN ARGUMENT', ALICE OBJECTED.
 WHEN I USE A WORD, HUMPTY DUMPTY SAID, IN A RATHER SCORNFUL TONE,
 IT MEANS JUST WHAT I CHOOSE IT TO MEAN....
 NEITHER MORE NOR LESS....
 THE QUESTION IS, SAID ALICE,
 WHETHER YOU CAN MAKE WORDS MEAN SO MANY DIFFERENT THINGS...
 THE QUESTION IS, SAID HUMPTY DUMPTY,
 WHICH IS TO BE MASTER....
 THAT IS ALL.....

 ALICE THROUGH THE LOOKING GLASS
 Job cpu time:       0 days  0 hours 22 minutes  1.0 seconds.
 Elapsed time:       0 days  0 hours 21 minutes 59.4 seconds.
 File lengths (MBytes):  RWF=    203 Int=      0 D2E=      0 Chk=      7 Scr=      1
 Normal termination of Gaussian 16 at Fri Sep 11 14:13:02 2020.
